********************************************************************************
*                       GENERAL UTILITY LATTICE PROGRAM                        *
*                                 Julian Gale                                  *
*                       Curtin Institute for Computation                       *
*                    School of Molecular and Life Sciences                     *
*                    Curtin University, Western Australia                      *
********************************************************************************
* Version = 6.2.0 * Last modified =  19th December 2023                        *
********************************************************************************
*  single       - perform a single point run                                   *
*  numerical    - calculate properties using numerical second derivatives      *
*  phonon       - calculate phonons for final geometry                         *
*  groupvelocity- group velocities to be computed at k points                  *
********************************************************************************

  Job Started  at 01:17.36 23rd June       2024                               

  Number of CPUs =     1

  Host name      = diamat.me.iitb.ac.in                    


  Total number of configurations input =      1

********************************************************************************
*  Input for Configuration =   1 : graphene                                    *
********************************************************************************

  Formula = C152                                                        

  Number of irreducible atoms/shells =     152


  Total number atoms/shells =     152

  Dimensionality = 3               :  Bulk   



  Cartesian lattice vectors (Angstroms) :

       60.000000    0.000000    0.000000
        0.000000    6.401133    0.000000
        0.000000    0.000000    3.340000

  Cell parameters (Angstroms/Degrees):

  a =      60.0000    alpha =  90.0000
  b =       6.4011    beta  =  90.0000
  c =       3.3400    gamma =  90.0000

  Initial cell volume =        1282.787053 Angs**3

  Temperature of configuration =   0.00     K 

  Pressure of configuration =         0.000 GPa 

  Fractional coordinates of asymmetric unit :

--------------------------------------------------------------------------------
   No.  Atomic       x           y          z         Charge      Occupancy
        Label      (Frac)      (Frac)     (Frac)        (e)         (Frac)  
--------------------------------------------------------------------------------
      1 C     c    0.002178    0.606922    0.000000     0.00000    1.000000    
      2 C     c    0.010954    0.035859    0.000000     0.00000    1.000000    
      3 C     c    0.015290    0.249770    0.000000     0.00000    1.000000    
      4 C     c    0.024084    0.678686    0.000000     0.00000    1.000000    
      5 C     c    0.028426    0.892584    0.000000     0.00000    1.000000    
      6 C     c    0.037192    0.321559    0.000000     0.00000    1.000000    
      7 C     c    0.041555    0.535422    0.000000     0.00000    1.000000    
      8 C     c    0.050335    0.964321    0.000000     0.00000    1.000000    
      9 C     c    0.054655    0.178264    0.000000     0.00000    1.000000    
     10 C     c    0.063465    0.607164    0.000000     0.00000    1.000000    
     11 C     c    0.067811    0.821048    0.000000     0.00000    1.000000    
     12 C     c    0.076549    0.250114    0.000000     0.00000    1.000000    
     13 C     c    0.080942    0.463927    0.000000     0.00000    1.000000    
     14 C     c    0.089725    0.892742    0.000000     0.00000    1.000000    
     15 C     c    0.093996    0.106780    0.000000     0.00000    1.000000    
     16 C     c    0.102857    0.535632    0.000000     0.00000    1.000000    
     17 C     c    0.107216    0.749478    0.000000     0.00000    1.000000    
     18 C     c    0.115868    0.178803    0.000000     0.00000    1.000000    
     19 C     c    0.120348    0.392474    0.000000     0.00000    1.000000    
     20 C     c    0.129147    0.821062    0.000000     0.00000    1.000000    
     21 C     c    0.133275    0.035391    0.000000     0.00000    1.000000    
     22 C     c    0.142280    0.464094    0.000000     0.00000    1.000000    
     23 C     c    0.146680    0.677777    0.000000     0.00000    1.000000    
     24 C     c    0.155079    0.107989    0.000000     0.00000    1.000000    
     25 C     c    0.159806    0.321196    0.000000     0.00000    1.000000    
     26 C     c    0.168665    0.749108    0.000000     0.00000    1.000000    
     27 C     c    0.172368    0.964468    0.000000     0.00000    1.000000    
     28 C     c    0.181777    0.392729    0.000000     0.00000    1.000000    
     29 C     c    0.186328    0.605191    0.000000     0.00000    1.000000    
     30 C     c    0.194020    0.038101    0.000000     0.00000    1.000000    
     31 C     c    0.199467    0.251716    0.000000     0.00000    1.000000    
     32 C     c    0.208407    0.676263    0.000000     0.00000    1.000000    
     33 C     c    0.210785    0.891395    0.000000     0.00000    1.000000    
     34 C     c    0.221705    0.325942    0.000000     0.00000    1.000000    
     35 C     c    0.227303    0.538053    0.000000     0.00000    1.000000    
     36 C     c    0.231602    0.967665    0.000000     0.00000    1.000000    
     37 C     c    0.238280    0.178684    0.000000     0.00000    1.000000    
     38 C     c    0.250000    0.837589    0.000000     0.00000    1.000000    
     39 C     c    0.250000    0.620290    0.000000     0.00000    1.000000    
     40 C     c    0.261720    0.178684    0.000000     0.00000    1.000000    
     41 C     c    0.268398    0.967665    0.000000     0.00000    1.000000    
     42 C     c    0.272697    0.538053    0.000000     0.00000    1.000000    
     43 C     c    0.278295    0.325942    0.000000     0.00000    1.000000    
     44 C     c    0.289215    0.891395    0.000000     0.00000    1.000000    
     45 C     c    0.291593    0.676263    0.000000     0.00000    1.000000    
     46 C     c    0.300533    0.251716    0.000000     0.00000    1.000000    
     47 C     c    0.305980    0.038101    0.000000     0.00000    1.000000    
     48 C     c    0.313672    0.605191    0.000000     0.00000    1.000000    
     49 C     c    0.318223    0.392729    0.000000     0.00000    1.000000    
     50 C     c    0.327632    0.964468    0.000000     0.00000    1.000000    
     51 C     c    0.331335    0.749108    0.000000     0.00000    1.000000    
     52 C     c    0.340193    0.321196    0.000000     0.00000    1.000000    
     53 C     c    0.344922    0.107989    0.000000     0.00000    1.000000    
     54 C     c    0.353320    0.677777    0.000000     0.00000    1.000000    
     55 C     c    0.357720    0.464094    0.000000     0.00000    1.000000    
     56 C     c    0.366725    0.035391    0.000000     0.00000    1.000000    
     57 C     c    0.370853    0.821062    0.000000     0.00000    1.000000    
     58 C     c    0.379652    0.392474    0.000000     0.00000    1.000000    
     59 C     c    0.384132    0.178803    0.000000     0.00000    1.000000    
     60 C     c    0.392785    0.749478    0.000000     0.00000    1.000000    
     61 C     c    0.397143    0.535632    0.000000     0.00000    1.000000    
     62 C     c    0.406003    0.106780    0.000000     0.00000    1.000000    
     63 C     c    0.410275    0.892742    0.000000     0.00000    1.000000    
     64 C     c    0.419058    0.463927    0.000000     0.00000    1.000000    
     65 C     c    0.423450    0.250114    0.000000     0.00000    1.000000    
     66 C     c    0.432188    0.821048    0.000000     0.00000    1.000000    
     67 C     c    0.436535    0.607164    0.000000     0.00000    1.000000    
     68 C     c    0.445345    0.178264    0.000000     0.00000    1.000000    
     69 C     c    0.449665    0.964321    0.000000     0.00000    1.000000    
     70 C     c    0.458445    0.535422    0.000000     0.00000    1.000000    
     71 C     c    0.462808    0.321559    0.000000     0.00000    1.000000    
     72 C     c    0.471573    0.892584    0.000000     0.00000    1.000000    
     73 C     c    0.475917    0.678686    0.000000     0.00000    1.000000    
     74 C     c    0.484710    0.249770    0.000000     0.00000    1.000000    
     75 C     c    0.489047    0.035859    0.000000     0.00000    1.000000    
     76 C     c    0.497822    0.606922    0.000000     0.00000    1.000000    
     77 C     c    0.502178    0.393048    0.000000     0.00000    1.000000    
     78 C     c    0.510953    0.964111    0.000000     0.00000    1.000000    
     79 C     c    0.515290    0.750200    0.000000     0.00000    1.000000    
     80 C     c    0.524083    0.321282    0.000000     0.00000    1.000000    
     81 C     c    0.528427    0.107386    0.000000     0.00000    1.000000    
     82 C     c    0.537192    0.678411    0.000000     0.00000    1.000000    
     83 C     c    0.541555    0.464547    0.000000     0.00000    1.000000    
     84 C     c    0.550335    0.035648    0.000000     0.00000    1.000000    
     85 C     c    0.554655    0.821706    0.000000     0.00000    1.000000    
     86 C     c    0.563465    0.392805    0.000000     0.00000    1.000000    
     87 C     c    0.567812    0.178921    0.000000     0.00000    1.000000    
     88 C     c    0.576550    0.749856    0.000000     0.00000    1.000000    
     89 C     c    0.580942    0.536043    0.000000     0.00000    1.000000    
     90 C     c    0.589725    0.107226    0.000000     0.00000    1.000000    
     91 C     c    0.593997    0.893190    0.000000     0.00000    1.000000    
     92 C     c    0.602857    0.464338    0.000000     0.00000    1.000000    
     93 C     c    0.607215    0.250492    0.000000     0.00000    1.000000    
     94 C     c    0.615868    0.821167    0.000000     0.00000    1.000000    
     95 C     c    0.620348    0.607496    0.000000     0.00000    1.000000    
     96 C     c    0.629147    0.178907    0.000000     0.00000    1.000000    
     97 C     c    0.633275    0.964579    0.000000     0.00000    1.000000    
     98 C     c    0.642280    0.535874    0.000000     0.00000    1.000000    
     99 C     c    0.646680    0.322193    0.000000     0.00000    1.000000    
    100 C     c    0.655078    0.891981    0.000000     0.00000    1.000000    
    101 C     c    0.659807    0.678774    0.000000     0.00000    1.000000    
    102 C     c    0.668665    0.250862    0.000000     0.00000    1.000000    
    103 C     c    0.672368    0.035500    0.000000     0.00000    1.000000    
    104 C     c    0.681777    0.607241    0.000000     0.00000    1.000000    
    105 C     c    0.686328    0.394779    0.000000     0.00000    1.000000    
    106 C     c    0.694020    0.961869    0.000000     0.00000    1.000000    
    107 C     c    0.699467    0.748253    0.000000     0.00000    1.000000    
    108 C     c    0.708407    0.323707    0.000000     0.00000    1.000000    
    109 C     c    0.710785    0.108575    0.000000     0.00000    1.000000    
    110 C     c    0.721705    0.674028    0.000000     0.00000    1.000000    
    111 C     c    0.727303    0.461917    0.000000     0.00000    1.000000    
    112 C     c    0.731602    0.032305    0.000000     0.00000    1.000000    
    113 C     c    0.738280    0.821286    0.000000     0.00000    1.000000    
    114 C     c    0.750000    0.379680    0.000000     0.00000    1.000000    
    115 C     c    0.750000    0.162379    0.000000     0.00000    1.000000    
    116 C     c    0.761720    0.821286    0.000000     0.00000    1.000000    
    117 C     c    0.768398    0.032305    0.000000     0.00000    1.000000    
    118 C     c    0.772697    0.461917    0.000000     0.00000    1.000000    
    119 C     c    0.778295    0.674028    0.000000     0.00000    1.000000    
    120 C     c    0.789215    0.108575    0.000000     0.00000    1.000000    
    121 C     c    0.791593    0.323707    0.000000     0.00000    1.000000    
    122 C     c    0.800533    0.748253    0.000000     0.00000    1.000000    
    123 C     c    0.805980    0.961869    0.000000     0.00000    1.000000    
    124 C     c    0.813672    0.394779    0.000000     0.00000    1.000000    
    125 C     c    0.818223    0.607241    0.000000     0.00000    1.000000    
    126 C     c    0.827632    0.035500    0.000000     0.00000    1.000000    
    127 C     c    0.831335    0.250862    0.000000     0.00000    1.000000    
    128 C     c    0.840193    0.678774    0.000000     0.00000    1.000000    
    129 C     c    0.844922    0.891981    0.000000     0.00000    1.000000    
    130 C     c    0.853320    0.322193    0.000000     0.00000    1.000000    
    131 C     c    0.857720    0.535874    0.000000     0.00000    1.000000    
    132 C     c    0.866725    0.964579    0.000000     0.00000    1.000000    
    133 C     c    0.870853    0.178907    0.000000     0.00000    1.000000    
    134 C     c    0.879652    0.607496    0.000000     0.00000    1.000000    
    135 C     c    0.884132    0.821167    0.000000     0.00000    1.000000    
    136 C     c    0.892785    0.250492    0.000000     0.00000    1.000000    
    137 C     c    0.897143    0.464338    0.000000     0.00000    1.000000    
    138 C     c    0.906003    0.893190    0.000000     0.00000    1.000000    
    139 C     c    0.910275    0.107226    0.000000     0.00000    1.000000    
    140 C     c    0.919058    0.536043    0.000000     0.00000    1.000000    
    141 C     c    0.923450    0.749856    0.000000     0.00000    1.000000    
    142 C     c    0.932188    0.178921    0.000000     0.00000    1.000000    
    143 C     c    0.936535    0.392805    0.000000     0.00000    1.000000    
    144 C     c    0.945345    0.821706    0.000000     0.00000    1.000000    
    145 C     c    0.949665    0.035648    0.000000     0.00000    1.000000    
    146 C     c    0.958445    0.464547    0.000000     0.00000    1.000000    
    147 C     c    0.962808    0.678411    0.000000     0.00000    1.000000    
    148 C     c    0.971573    0.107386    0.000000     0.00000    1.000000    
    149 C     c    0.975917    0.321282    0.000000     0.00000    1.000000    
    150 C     c    0.984710    0.750200    0.000000     0.00000    1.000000    
    151 C     c    0.989047    0.964111    0.000000     0.00000    1.000000    
    152 C     c    0.997822    0.393048    0.000000     0.00000    1.000000    
--------------------------------------------------------------------------------


  Brillouin zone sampling points :

--------------------------------------------------------------------------------
  Point number          x          y          z            Weight
--------------------------------------------------------------------------------
        1           0.333330   0.400000   0.000000     1.00000000
--------------------------------------------------------------------------------


********************************************************************************
*  General input information                                                   *
********************************************************************************

  Species output for all configurations : 

--------------------------------------------------------------------------------
  Species    Type    Atomic    Atomic    Charge       Radii (Angs)     Library
                     Number     Mass       (e)     Cova   Ionic  VDW   Symbol
--------------------------------------------------------------------------------
    C        Core        6      12.01   0.000000   0.770  0.000  1.530          
--------------------------------------------------------------------------------


  Lattice summation method               =    Ewald          (3-D)
                                         =    Parry          (2-D)
                                         =    Saunders et al (1-D)
  Accuracy factor for lattice sums       =   12.000


  Analytic derivatives to be used

  Time limit = Infinity

  Maximum range for interatomic potentials =    100000.000000 Angstroms

  Brenner et al 2002 potential to be used with explicit splines for P


********************************************************************************
*  Output for configuration   1 : graphene                                     *
********************************************************************************


  Components of energy : 

--------------------------------------------------------------------------------
  Interatomic potentials     =           0.00000000 eV    
  Brenner potentials         =       -1114.58973476 eV    
  Monopole - monopole (real) =           0.00000000 eV    
  Monopole - monopole (recip)=           0.00000000 eV    
  Monopole - monopole (total)=           0.00000000 eV    
--------------------------------------------------------------------------------
  Total lattice energy       =       -1114.58973476 eV    
--------------------------------------------------------------------------------
  Total lattice energy       =         -107540.8713 kJ/(mole unit cells)
--------------------------------------------------------------------------------


  Elastic Constant Matrix: (Units=GPa)

-------------------------------------------------------------------------------
  Indices      1         2         3         4         5         6    
-------------------------------------------------------------------------------
       1   1069.3070  380.6499    0.0000   -0.0000    0.0000   -0.0083
       2    380.6499 1065.6003    0.0000    0.0000    0.0000    0.0054
       3      0.0000    0.0000    0.0000    0.0000    0.0000    0.0000
       4     -0.0000    0.0000    0.0000  -13.2552    0.0006    0.0000
       5      0.0000    0.0000    0.0000    0.0006  -14.0513   -0.0000
       6     -0.0083    0.0054    0.0000    0.0000   -0.0000  306.6171
-------------------------------------------------------------------------------

  Mechanical properties :

-------------------------------------------------------------------------------
  Convention :                    Reuss         Voigt         Hill
-------------------------------------------------------------------------------
  Bulk  Modulus (GPa)     =       0.00000     321.80079     160.90039
  Shear Modulus (GPa)     =       0.00000     172.81260      86.40630
-------------------------------------------------------------------------------
  Velocity S-wave (km/s)  =       0.00000       8.55153       6.04684
  Velocity P-wave (km/s)  =       0.00000      15.28661      10.80926
-------------------------------------------------------------------------------
-------------------------------------------------------------------------------
  Stress axis :                     x             y             z
-------------------------------------------------------------------------------
  Youngs Moduli (GPa)     =    1069.30703     930.09730       0.00000
-------------------------------------------------------------------------------
  Poissons Ratio (x)      =               -354041.41638      -0.00000
  Poissons Ratio (y)      = -407031.58238                    -0.00000
  Poissons Ratio (z)      =      -0.00000      -0.00000
-------------------------------------------------------------------------------


  Piezoelectric Strain Matrix: (Units=C/m**2)

-------------------------------------------------------------------------------
  Indices      1         2         3         4         5         6    
-------------------------------------------------------------------------------
       x    -0.00000  -0.00000  -0.00000  -0.00000  -0.00000  -0.00000
       y    -0.00000  -0.00000  -0.00000  -0.00000  -0.00000  -0.00000
       z    -0.00000  -0.00000  -0.00000  -0.00000  -0.00000  -0.00000
-------------------------------------------------------------------------------


  Static dielectric constant tensor : 

-------------------------------------------------------------------------------
              x         y         z
-------------------------------------------------------------------------------
       x     1.00000   0.00000   0.00000
       y     0.00000   1.00000   0.00000
       z     0.00000   0.00000   1.00000
--------------------------------------------------------------------------------

  Static refractive indices : 

-------------------------------------------------------------------------------
    1 =    1.00000      2 =    1.00000      3 =    1.00000
-------------------------------------------------------------------------------


  Phonon Calculation : 

  Number of k points for this configuration =        1

--------------------------------------------------------------------------------
  K point      1 =   0.333330  0.400000  0.000000  Weight =    1.000
--------------------------------------------------------------------------------

  Frequencies (cm-1) : 

  -86.81  -86.80  -65.21  -65.17  -56.75  -56.62  -49.84  -49.75  -47.97
  -46.51  -32.34  -29.08   -4.10    9.79   23.74   34.61   35.55   44.46
   58.76   64.42   71.14   74.40   95.28   96.63  106.76  108.63  130.36
  134.12  142.64  146.83  167.93  172.92  180.94  186.16  207.08  212.80
  220.33  226.31  230.68  234.38  246.71  252.88  258.28  259.72  266.09
  267.84  285.74  289.92  290.97  298.30  301.15  303.05  321.14  323.46
  324.09  330.73  331.79  333.11  333.37  339.30  343.03  344.03  345.07
  345.20  346.62  348.68  349.42  351.38  355.68  358.11  360.99  362.73
  367.30  367.94  369.08  374.25  377.24  379.08  382.05  384.19  388.20
  392.88  396.16  398.72  399.18  403.98  404.96  410.95  415.52  421.71
  427.53  427.61  434.30  435.89  440.70  445.87  449.46  452.34  453.34
  459.68  463.10  465.69  466.97  479.18  486.71  489.38  498.65  499.52
  504.35  505.76  511.90  521.60  524.60  526.76  531.74  532.78  535.40
  545.96  552.24  554.12  554.88  556.06  559.24  560.96  568.97  569.69
  571.98  575.82  577.30  581.05  581.63  584.27  587.57  587.64  592.39
  597.78  598.92  599.46  600.54  604.61  604.73  606.78  607.91  611.12
  611.13  611.46  615.07  616.51  623.04  623.90  629.07  629.98  630.54
  631.52  632.79  633.90  634.16  634.94  639.58  641.89  644.02  647.60
  647.84  650.36  650.92  657.45  658.67  660.65  664.18  667.91  669.72
  671.81  675.91  678.26  681.47  683.17  689.00  692.31  696.68  700.91
  706.67  708.88  716.46  718.69  721.55  724.42  727.41  730.03  736.16
  740.46  741.46  748.97  750.83  753.92  754.97  758.03  761.40  767.61
  774.86  781.89  782.95  785.88  786.00  793.18  793.80  798.11  806.01
  807.64  809.49  812.56  813.73  816.05  822.17  824.21  829.82  834.18
  835.47  839.44  842.04  842.99  846.30  847.84  858.57  859.28  862.89
  863.72  865.73  869.55  874.60  878.14  881.69  882.71  883.31  886.33
  891.16  891.70  892.48  896.24  897.61  906.66  908.89  909.47  913.81
  920.50  921.91  922.29  925.70  931.77  931.97  943.21  949.43  949.47
  955.96  955.97  960.01  972.87  985.56  989.54 1008.30 1025.29 1033.69
 1034.59 1055.39 1065.40 1077.86 1091.06 1114.10 1128.34 1133.48 1145.78
 1172.39 1177.82 1188.55 1192.42 1216.25 1217.71 1220.01 1222.11 1230.57
 1233.19 1239.61 1244.11 1250.53 1253.59 1256.00 1259.34 1266.26 1271.61
 1281.40 1283.95 1293.95 1294.14 1299.39 1300.80 1309.82 1310.50 1325.23
 1326.42 1340.34 1341.76 1343.73 1344.33 1347.28 1348.22 1366.31 1372.78
 1389.18 1397.70 1414.49 1421.18 1438.59 1440.88 1449.24 1451.60 1463.18
 1468.80 1475.39 1483.44 1487.78 1491.28 1509.29 1513.60 1516.67 1522.90
 1534.97 1536.85 1547.30 1548.05 1557.23 1558.91 1563.51 1564.47 1569.55
 1572.19 1586.47 1588.17 1594.62 1599.62 1616.31 1624.95 1633.06 1635.47
 1650.76 1659.42 1670.74 1673.18 1684.02 1692.91 1703.55 1705.64 1713.12
 1721.77 1732.55 1734.18 1739.29 1746.53 1757.45 1758.38 1763.65 1768.56
 1777.18 1778.51 1783.89 1787.35 1791.41 1792.53 1798.73 1800.82 1806.27
 1806.62 1811.97 1812.74 1818.82 1819.58 1822.92 1823.57 1824.49 1824.74
 1829.33 1830.03 1834.79 1835.63 1838.67 1839.09 1843.73 1843.91 1844.53
 1844.55 1845.21 1845.41 1846.38 1846.69 1847.76 1848.25 1851.35 1851.79
 1852.11 1852.14 1853.06 1853.08 1854.73 1854.88 1855.79 1855.84 1856.35
 1856.47 1857.36 1857.40 1859.02 1859.38 1860.25 1860.27 1861.23 1861.23
 1863.24 1863.50 1865.62 1865.80 1867.71 1867.82 1871.55 1871.71 1874.76
 1875.15 1881.89 1882.18 1882.79 1883.19 1889.45 1889.77 1893.44 1893.55
 1895.10 1895.27 1898.40 1898.88 1900.44 1901.31 1903.57 1904.69 1907.88
 1908.50 1912.48 1912.60 1946.79 1946.80 1974.19 1974.20 1974.96 1974.97
 2009.88 2009.89 2167.88 2167.89 2192.60 2192.60


 Group velocities (cm-1.Ang) : 

 Mode         X             Y             Z

     1      -0.191095      0.948377     -0.000000 i
     2       0.191505      1.034550     -0.000000 i
     3      -0.929062     22.566100     -0.000000 i
     4       0.942856     22.494776     -0.000000 i
     5      -3.333043     39.019786     -0.000000 i
     6       3.196119     43.611222     -0.000000 i
     7      -1.719212     -1.131609     -0.000000 i
     8       3.518411     -4.082745     -0.000000 i
     9     -32.742439    -68.857744     -0.000000 i
    10      46.031188    -75.487919     -0.000000 i
    11    -102.100518   -115.159667     -0.000000 i
    12      67.520284     34.297841     -0.000000 i
    13      51.602655   2869.033202     -0.000000 i
    14    -336.018983  -1134.302909      0.000000
    15     290.537986   -487.904823      0.000000
    16    -325.112429   -233.184471      0.000000
    17     248.154247   -301.576607      0.000000
    18    -251.738200   -268.700627      0.000000
    19     340.652938    -46.984894      0.000000
    20     250.613304   -220.241344      0.000000
    21    -327.927618    -32.472046      0.000000
    22    -279.008925   -195.766235      0.000000
    23     325.761783   -119.453188      0.000000
    24     322.372802    -52.476198      0.000000
    25    -321.306672   -131.939298      0.000000
    26    -343.920301    -32.445772      0.000000
    27     342.811700    -92.856822      0.000000
    28     352.782514    -44.361860      0.000000
    29    -349.220820    -76.809699      0.000000
    30    -363.085771    -55.786162      0.000000
    31     365.870531    -46.478013      0.000000
    32     368.172886    -65.882208      0.000000
    33    -366.844612    -37.715798      0.000000
    34    -377.661618    -72.119030      0.000000
    35     375.754254    -22.257768      0.000000
    36     375.651212    -70.854234      0.000000
    37    -367.412337    -21.623100      0.000000
    38    -382.266283    -70.806265      0.000000
    39      79.444451    520.681022      0.000000
    40    -119.682998    508.246134      0.000000
    41     368.813761    -15.044261      0.000000
    42     364.051055    -61.901843      0.000000
    43     233.121538    523.897747      0.000000
    44    -349.443260    -18.513692      0.000000
    45    -367.297614    -58.673361      0.000000
    46    -300.078225    507.822284      0.000000
    47     345.126604     -7.294489      0.000000
    48     320.485146    471.948858      0.000000
    49     317.499433    -50.970107      0.000000
    50    -316.462435     -9.220834      0.000000
    51    -322.404749    439.365111      0.000000
    52    -319.122204    -51.881320      0.000000
    53     280.743808     29.895498      0.000000
    54     228.481816    -39.667566      0.000000
    55     299.490534    293.940605      0.000000
    56     -69.278065   -261.789438      0.000000
    57    -197.937613     42.718431      0.000000
    58    -196.236932    -46.126878      0.000000
    59      57.859526   -310.965569      0.000000
    60    -288.914911    252.375824      0.000000
    61      28.394213    185.333124      0.000000
    62     -39.851707    176.178451      0.000000
    63      30.525730    200.331853      0.000000
    64      77.327538    101.092515      0.000000
    65     -14.214182    150.932228      0.000000
    66     -62.636573    -10.400290      0.000000
    67      56.507560    192.146219      0.000000
    68     -44.305484    188.539708      0.000000
    69      82.560035    216.112079      0.000000
    70     -14.065230    172.180299      0.000000
    71     255.536070    111.863013      0.000000
    72      76.417749    131.513578      0.000000
    73     -79.583130    146.876606      0.000000
    74    -138.588843   -194.254347      0.000000
    75      63.273807    145.948047      0.000000
    76    -172.890007    160.422872      0.000000
    77     101.890086   -182.378762      0.000000
    78     145.609670    139.774759      0.000000
    79    -163.817139    145.583402      0.000000
    80    -132.163932    146.074058      0.000000
    81     134.169228    163.213646      0.000000
    82     -97.060848    191.898268      0.000000
    83      93.118461    141.528169      0.000000
    84     150.941471   -111.032491      0.000000
    85     -56.879359    208.333444      0.000000
    86    -137.618241   -245.929486      0.000000
    87     140.171792     81.760321      0.000000
    88    -195.335408      7.608053      0.000000
    89     147.600084    -49.076006      0.000000
    90    -172.229376     41.127374      0.000000
    91     236.387016    -64.392778      0.000000
    92     164.460402   -237.996682      0.000000
    93    -194.606828   -133.517036      0.000000
    94    -237.334060   -100.306021      0.000000
    95      61.809177    785.725819      0.000000
    96    -200.931103    645.696941      0.000000
    97     234.553429    306.956017      0.000000
    98     181.193754    -21.285967      0.000000
    99     206.261019   -193.883382      0.000000
   100    -143.629126   -272.182380      0.000000
   101    -216.055908    249.928758      0.000000
   102    -217.334084     34.033933      0.000000
   103     275.722347    502.779168      0.000000
   104    -313.732399    441.813018      0.000000
   105     235.912350    149.814596      0.000000
   106     301.450303    -32.144375      0.000000
   107    -203.670924    116.376896      0.000000
   108     143.020306    247.228437      0.000000
   109    -349.820138     19.964110      0.000000
   110    -198.564130    162.547032      0.000000
   111     401.386658    440.801205      0.000000
   112     227.759790     77.939486      0.000000
   113     230.328476     92.994451      0.000000
   114    -295.629178    152.441255      0.000000
   115     -74.292224    184.451804      0.000000
   116    -226.141352     41.683450      0.000000
   117      81.031754    186.091444      0.000000
   118    -212.946763   -111.010465      0.000000
   119     204.399765      8.493536      0.000000
   120      29.257119     47.266917      0.000000
   121      75.787536     47.179740      0.000000
   122     -64.069679    -17.937154      0.000000
   123    -183.916402    -45.445425      0.000000
   124    -177.021885    -49.441999      0.000000
   125      16.143293   -254.514258      0.000000
   126     -16.777426   -257.361287      0.000000
   127     453.778583    392.379329      0.000000
   128     234.212127   -105.152519      0.000000
   129     146.270953    -62.291797      0.000000
   130      30.641571    -57.520999      0.000000
   131     -59.705407   -171.818032      0.000000
   132      27.493639   -215.019752      0.000000
   133    -143.688784   -105.756151      0.000000
   134     -16.441264     54.144821      0.000000
   135    -108.256350    -82.072745      0.000000
   136    -449.093192    391.990613      0.000000
   137      48.309104   -194.472777      0.000000
   138     171.716337   -205.450677      0.000000
   139     -23.877449   -162.479463      0.000000
   140     202.769729    -88.459595      0.000000
   141      58.007176     -1.721843      0.000000
   142     -72.153627     57.413233      0.000000
   143    -138.026492   -196.993262      0.000000
   144     -98.772728   -146.438467      0.000000
   145     -92.906885   -202.654194      0.000000
   146     -69.690016   -203.172530      0.000000
   147     -10.970047   -134.285206      0.000000
   148    -125.668562   -106.726300      0.000000
   149      20.475615   -178.306271      0.000000
   150     -26.160698   -164.157009      0.000000
   151      24.908568    -95.477151      0.000000
   152     -24.249121   -162.138101      0.000000
   153     170.042882   -141.636299      0.000000
   154      52.217262    -49.154519      0.000000
   155      -3.819651    -94.170911      0.000000
   156      39.334697   -180.118891      0.000000
   157       9.718808   -197.168695      0.000000
   158     -69.346643   -258.961332      0.000000
   159     169.339845     35.131281      0.000000
   160     160.091372    -74.972187      0.000000
   161     -10.205771   -178.393955      0.000000
   162     263.555221   -300.235662      0.000000
   163    -258.248049     29.347866      0.000000
   164      -5.464859   -810.530855      0.000000
   165     237.994286   -272.559223      0.000000
   166      34.892481    -13.881832      0.000000
   167     -44.618761      6.613624      0.000000
   168     163.961906   -153.175948      0.000000
   169    -137.423913   -171.915162      0.000000
   170     -28.610640   -368.645184      0.000000
   171    -261.482408     31.582738      0.000000
   172     280.571696     69.853489      0.000000
   173    -230.693587   -313.390915      0.000000
   174     -72.624258   -226.046100      0.000000
   175    -255.600466     52.380358      0.000000
   176    -231.059199   -131.477316      0.000000
   177      72.878210     -9.673154      0.000000
   178    -112.607171     12.548416      0.000000
   179     185.486102   -692.364323      0.000000
   180     158.390731   -268.713084      0.000000
   181     282.841359     65.196617      0.000000
   182       1.605298   -498.706271      0.000000
   183    -264.377209     67.166181      0.000000
   184    -337.480290      3.378419      0.000000
   185     140.545805      5.732346      0.000000
   186     264.515337    -83.401470      0.000000
   187    -175.037658     18.185312      0.000000
   188     -43.656732    -72.569204      0.000000
   189     439.431950     21.822321      0.000000
   190     248.093195   -249.675379      0.000000
   191     270.922702     52.632820      0.000000
   192      -8.248319   -277.581462      0.000000
   193    -209.531448     86.521291      0.000000
   194     140.165886      9.042284      0.000000
   195     -85.282013   -162.058158      0.000000
   196    -480.211980    241.169237      0.000000
   197    -223.895233     31.994118      0.000000
   198    -394.367485    104.475620      0.000000
   199     261.803193     41.279958      0.000000
   200     185.849805   -339.317712      0.000000
   201       0.563930     95.475229      0.000000
   202     -30.707903     16.153286      0.000000
   203     -56.387355    -42.004158      0.000000
   204    -245.342150     50.062379      0.000000
   205     256.969249   -112.449357      0.000000
   206     344.485368    125.875890      0.000000
   207     251.410798     35.927804      0.000000
   208    -472.140482   -390.117039      0.000000
   209    -166.492677    198.507036      0.000000
   210     122.156834     92.554283      0.000000
   211     483.157544    238.167959      0.000000
   212    -132.310445     31.922198      0.000000
   213    -238.131919     68.003746      0.000000
   214      46.074717    187.712697      0.000000
   215     -52.408875    114.579067      0.000000
   216     231.652966     40.923225      0.000000
   217    -191.549352    144.129106      0.000000
   218     159.459363     87.060373      0.000000
   219     268.830484   -250.487363      0.000000
   220    -162.599634     51.768868      0.000000
   221    -236.455110    -45.194654      0.000000
   222    -211.564564     83.015521      0.000000
   223     201.333815     62.939705      0.000000
   224     -24.345276    -90.665018      0.000000
   225     164.862828     81.939908      0.000000
   226    -135.785000   -176.786210      0.000000
   227    -166.484843     81.086367      0.000000
   228    -173.438336     91.301964      0.000000
   229     142.419922    -39.013846      0.000000
   230     156.818233    107.339855      0.000000
   231     136.338282    100.123438      0.000000
   232    -340.217071    -99.197238      0.000000
   233    -131.295295    124.998232      0.000000
   234    -119.495284    113.189950      0.000000
   235      68.612032    180.627989      0.000000
   236     581.806004     90.594826      0.000000
   237       3.945793    197.117863      0.000000
   238      28.657237     39.322362      0.000000
   239     -37.648003     56.797083      0.000000
   240    -129.849991     62.526222      0.000000
   241      15.763856    -81.644829      0.000000
   242     -14.357723    -73.634474      0.000000
   243      46.743096    128.202791      0.000000
   244    -413.420937    110.307572      0.000000
   245      10.036936   -131.911952      0.000000
   246      -9.932628   -133.385122      0.000000
   247     451.464169   -164.845310      0.000000
   248       5.108024   -159.464301      0.000000
   249      -4.854939   -161.465602      0.000000
   250    -461.167151   -171.800016      0.000000
   251       0.979275    -86.753635      0.000000
   252      -0.976678    -87.487500      0.000000
   253       0.316383    -94.347624      0.000000
   254      -0.313976    -94.543937      0.000000
   255     481.863580     73.006313      0.000000
   256    -228.913210     45.121569      0.000000
   257      67.546896    -45.405109      0.000000
   258    -134.686512    -62.684778      0.000000
   259     417.097535     10.244956      0.000000
   260    -452.727480     22.328165      0.000000
   261      -9.429458     45.709857      0.000000
   262    -113.277620     -9.661867      0.000000
   263     383.883269    106.469475      0.000000
   264     178.300469    -30.712197      0.000000
   265    -118.183104     31.128261      0.000000
   266    -533.771456    -89.655659      0.000000
   267     542.530341     98.057769      0.000000
   268     417.433013   -103.757674      0.000000
   269    -437.766936     99.296985      0.000000
   270    -457.346330   -121.383481      0.000000
   271     437.075099    149.203852      0.000000
   272     338.464486   -160.328284      0.000000
   273    -309.049591    102.586650      0.000000
   274    -352.122219   -104.458552      0.000000
   275      48.747948    278.258039      0.000000
   276       5.323621    251.523694      0.000000
   277     196.504686     76.920050      0.000000
   278     110.801884    195.909272      0.000000
   279     -71.569646     89.961329      0.000000
   280    -107.207776    277.974876      0.000000
   281      39.529206    247.034621      0.000000
   282    -148.949292    165.269418      0.000000
   283      77.304098     98.797437      0.000000
   284     -68.740934     51.180062      0.000000
   285     119.831542     42.734760      0.000000
   286     -58.721837    111.577339      0.000000
   287     144.679513    148.879753      0.000000
   288    -146.444853     84.184716      0.000000
   289      82.314985     75.971870      0.000000
   290     -59.744059     72.853486      0.000000
   291       8.291950   -119.882807      0.000000
   292      -2.727457   -124.944336      0.000000
   293      37.137598    151.272762      0.000000
   294     -36.608669    185.492096      0.000000
   295      18.719831    237.309019      0.000000
   296     -16.512348    252.159333      0.000000
   297      28.399144    147.636215      0.000000
   298     -34.218082    123.923440      0.000000
   299      55.257768    177.220777      0.000000
   300     -16.500979    119.665003      0.000000
   301       3.208338     44.697737      0.000000
   302     -25.839377    110.540269      0.000000
   303      12.224086    254.778539      0.000000
   304     -43.632392    190.157090      0.000000
   305     152.659356    272.690364      0.000000
   306    -207.591324    208.479506      0.000000
   307     240.545728    124.461390      0.000000
   308    -244.836895     83.999795      0.000000
   309     215.065615     16.391053      0.000000
   310    -159.809819    -23.981442      0.000000
   311     101.677234   -104.694723      0.000000
   312     -11.525487    -94.593692      0.000000
   313     -25.646930   -369.343660      0.000000
   314    -127.289325   -273.796733      0.000000
   315     129.901345   -283.931771      0.000000
   316    -167.589831   -304.133315      0.000000
   317     281.634291    -78.623794      0.000000
   318      -5.679660   -166.041208      0.000000
   319    -104.532192   -186.873564      0.000000
   320    -140.398313   -277.272662      0.000000
   321     129.478361   -262.094190      0.000000
   322     -77.546805   -260.797334      0.000000
   323     175.724598    -66.077661      0.000000
   324    -119.768255   -106.867072      0.000000
   325      14.253343   -217.456902      0.000000
   326     -72.579751   -253.663634      0.000000
   327      39.568517   -173.032420      0.000000
   328       5.612633   -137.792924      0.000000
   329      45.107094   -232.936363      0.000000
   330     -36.297525   -230.317283      0.000000
   331      21.047443   -219.383051      0.000000
   332     -34.381499   -202.519091      0.000000
   333      61.812787     28.109856      0.000000
   334     -81.697050     71.263414      0.000000
   335      73.283119     67.472701      0.000000
   336     -20.341253     32.187799      0.000000
   337      81.488124     -1.166743      0.000000
   338    -192.296821     24.410698      0.000000
   339     252.577061     60.152344      0.000000
   340    -230.818645     65.302446      0.000000
   341      64.976376     38.352716      0.000000
   342     -63.086189     33.032219      0.000000
   343     232.112097     38.747004      0.000000
   344    -245.977698     39.414131      0.000000
   345      70.884599     65.125063      0.000000
   346     -60.088519     64.650423      0.000000
   347     236.441482     24.147505      0.000000
   348    -259.814303     30.198968      0.000000
   349      58.627769     62.236208      0.000000
   350     -52.698946     64.523637      0.000000
   351     245.539170     25.585183      0.000000
   352    -243.102322     33.077431      0.000000
   353      43.171023     62.051248      0.000000
   354     -39.495022     73.963715      0.000000
   355     213.773365      7.672985      0.000000
   356    -192.259335     27.185687      0.000000
   357      32.011977     80.409595      0.000000
   358      -3.775035    113.190947      0.000000
   359     126.237927    -33.131388      0.000000
   360    -134.806225      8.967320      0.000000
   361      41.368780    112.420824      0.000000
   362     -28.633216    102.794831      0.000000
   363      92.084494     -4.006407      0.000000
   364     -94.808362     -0.208907      0.000000
   365      33.950774     37.252794      0.000000
   366     -29.078589     54.251455      0.000000
   367      63.198029     88.343099      0.000000
   368     -48.340786     81.053613      0.000000
   369       8.264907     -8.007585      0.000000
   370     -10.165029    -18.018928      0.000000
   371      22.369010     99.380294      0.000000
   372     -17.858264    108.184474      0.000000
   373      17.182617     14.455968      0.000000
   374     -23.390770      1.997470      0.000000
   375      20.111324     31.481612      0.000000
   376     -15.562158     23.825229      0.000000
   377       7.390159     23.012148      0.000000
   378      -6.547327     10.422927      0.000000
   379      17.273411     10.930332      0.000000
   380     -19.899542     -8.667533      0.000000
   381      22.260439     36.784650      0.000000
   382     -22.404488     24.085850      0.000000
   383      12.925926      4.108493      0.000000
   384      -9.406851      0.934243      0.000000
   385       4.012795    -29.518222      0.000000
   386      -4.931746    -29.164528      0.000000
   387       0.157938     -6.924020      0.000000
   388      -0.028158     -7.269717      0.000000
   389       5.707274    -13.952500      0.000000
   390      -4.728401    -22.687352      0.000000
   391       6.536469    -11.504437      0.000000
   392     -11.748490    -19.086785      0.000000
   393      15.344162    -27.339514      0.000000
   394     -11.697527    -26.778628      0.000000
   395      11.859030    -23.265273      0.000000
   396     -11.065524    -20.281650      0.000000
   397       0.849164      6.912574      0.000000
   398      -1.232269      7.459593      0.000000
   399       0.605446     -7.600015      0.000000
   400      -0.233012     -5.153521      0.000000
   401       3.766095    -26.122736      0.000000
   402      -3.308707    -27.549625      0.000000
   403       1.236938      9.410831      0.000000
   404      -0.913428      8.017492      0.000000
   405       2.747897    -56.139032      0.000000
   406      -3.695654    -51.989541      0.000000
   407       1.514636    -22.988564      0.000000
   408      -0.597880    -27.855990      0.000000
   409       8.524524    -10.770777      0.000000
   410      -9.827859     -1.930671      0.000000
   411       0.686087    -40.876869      0.000000
   412      -0.873598    -42.470499      0.000000
   413       0.012448    -44.230262      0.000000
   414      -0.011612    -44.255536      0.000000
   415       7.608460     -7.771664      0.000000
   416      -5.748004    -13.509547      0.000000
   417       4.830950    -24.260490      0.000000
   418      -4.047586    -11.021640      0.000000
   419       1.426216      6.273965      0.000000
   420      -4.577076     -1.262509      0.000000
   421       5.729488    -10.166654      0.000000
   422      -2.279797     -0.149126      0.000000
   423       8.474788      3.659968      0.000000
   424     -11.570948      2.573120      0.000000
   425      10.734261      0.059224      0.000000
   426      -3.979606      5.772962      0.000000
   427       6.634999     11.539843      0.000000
   428     -12.969919      6.506734      0.000000
   429       8.821734     11.971814      0.000000
   430      -7.834714      5.477545      0.000000
   431       3.174464     14.778244      0.000000
   432      -2.330326     16.024350      0.000000
   433       3.747092     22.521688      0.000000
   434      -4.990320     17.878328      0.000000
   435      10.338944     18.777107      0.000000
   436     -15.662143     19.134568      0.000000
   437      22.182802     12.527061      0.000000
   438     -26.600513      2.973834      0.000000
   439      33.144594    -13.085989      0.000000
   440     -28.530201    -12.015216      0.000000
   441      19.264053    -20.364346      0.000000
   442     -13.984244    -19.732244      0.000000
   443       3.540154     -8.123677      0.000000
   444      -3.108374     -8.776506      0.000000
   445       0.000133    -10.518007      0.000000
   446      -0.000133    -10.514449      0.000000
   447       0.000001     -0.795550      0.000000
   448      -0.000001     -0.796951      0.000000
   449       0.000002      5.272077      0.000000
   450      -0.000002      5.270480      0.000000
   451       0.000000     -1.407503      0.000000
   452      -0.000000     -1.407144      0.000000
   453       0.000000      0.195391      0.000000
   454      -0.000000      0.195340      0.000000
   455       0.000000      1.084026      0.000000
   456      -0.000000      1.083944      0.000000


--------------------------------------------------------------------------------
  Phonon properties (per mole of unit cells): Temperature =      0.000 K
--------------------------------------------------------------------------------
  Zero point energy             =       28.703815 eV
--------------------------------------------------------------------------------

  Phonon density of states : 

--------------------------------------------------------------------------------
 Frequency (cm-1) Density of States                                             
--------------------------------------------------------------------------------
    0.00000 |***                                                           0.005
   34.25937 |********                                                      0.011
   68.51874 |*******                                                       0.009
  102.77812 |*******                                                       0.009
  137.03749 |*****                                                         0.007
  171.29686 |*****                                                         0.007
  205.55623 |**********                                                    0.014
  239.81561 |**********                                                    0.014
  274.07498 |**********                                                    0.014
  308.33435 |**************                                                0.018
  342.59372 |****************************                                  0.036
  376.85310 |*********************                                         0.027
  411.11247 |************                                                  0.016
  445.37184 |***************                                               0.020
  479.63121 |************                                                  0.016
  513.89059 |************                                                  0.016
  548.14996 |**********************                                        0.029
  582.40933 |******************************                                0.038
  616.66870 |******************************                                0.038
  650.92808 |*******************                                           0.025
  685.18745 |**************                                                0.018
  719.44682 |***************                                               0.020
  753.70619 |*****************                                             0.023
  787.96557 |*****************                                             0.023
  822.22494 |***************                                               0.020
  856.48431 |*********************                                         0.027
  890.74368 |*********************                                         0.027
  925.00306 |**************                                                0.018
  959.26243 |*******                                                       0.009
  993.52180 |***                                                           0.005
 1027.78117 |*****                                                         0.007
 1062.04055 |*****                                                         0.007
 1096.29992 |***                                                           0.005
 1130.55929 |***                                                           0.005
 1164.81866 |*******                                                       0.009
 1199.07804 |**********                                                    0.014
 1233.33741 |************                                                  0.016
 1267.59678 |************                                                  0.016
 1301.85615 |*******                                                       0.009
 1336.11553 |************                                                  0.016
 1370.37490 |*****                                                         0.007
 1404.63427 |*****                                                         0.007
 1438.89364 |********                                                      0.011
 1473.15302 |*******                                                       0.009
 1507.41239 |**********                                                    0.014
 1541.67176 |**************                                                0.018
 1575.93113 |*******                                                       0.009
 1610.19051 |*******                                                       0.009
 1644.44988 |*******                                                       0.009
 1678.70925 |*******                                                       0.009
 1712.96862 |**********                                                    0.014
 1747.22800 |**********                                                    0.014
 1781.48737 |*****************                                             0.023
 1815.74674 |**************************************                        0.050
 1850.00611 |************************************************************  0.077
 1884.26549 |****************************                                  0.036
 1918.52486 |***                                                           0.005
 1952.78423 |*******                                                       0.009
 1987.04360 |***                                                           0.005
 2021.30298 |                                                              0.000
 2055.56235 |                                                              0.000
 2089.82172 |                                                              0.000
 2124.08109 |                                                              0.000
 2158.34047 |*******                                                       0.009
--------------------------------------------------------------------------------



  Time to end of properties =       5.1125 seconds


  Peak dynamic memory used =      16.06 MB 


  Timing analysis for GULP :

--------------------------------------------------------------------------------
  Task / Subroutine                                          Time (Seconds)
--------------------------------------------------------------------------------
  Calculation of Brenner energy and derivatives                   3.8004
  Calculation of phonons                                          1.3127
  Calculation of matrix diagonalisation                           0.6667
  Disk read/write operations to scratch files                     0.0011
--------------------------------------------------------------------------------
  Total CPU time                                                  5.1126
--------------------------------------------------------------------------------


  Job Finished at 01:17.41 23rd June       2024                               

