ITEM: TIMESTEP
0
ITEM: NUMBER OF ATOMS
152
ITEM: BOX BOUNDS xy xz yz pp pp pp
0.0000000000000000e+00 6.0000000000000000e+01 0.0000000000000000e+00
0.0000000000000000e+00 6.4011329999999997e+00 0.0000000000000000e+00
0.0000000000000000e+00 3.3399999999999999e+00 0.0000000000000000e+00
ITEM: ATOMS id type x y z 
1 1 0.13199 3.8863 0 
2 1 0.65993 0.22861 0 
3 1 0.9239 1.6002 0 
4 1 1.4518 4.3435 0 
5 1 1.7158 5.7151 0 
6 1 2.2437 2.0574 0 
7 1 2.5077 3.4291 0 
8 1 3.0357 6.1723 0 
9 1 3.2996 1.143 0 
10 1 3.8301 3.8872 0 
11 1 4.0933 5.2564 0 
12 1 4.6178 1.5997 0 
13 1 4.8814 2.9741 0 
14 1 5.4105 5.7151 0 
15 1 5.6756 0.68686 0 
16 1 6.213 3.4312 0 
17 1 6.4756 4.7954 0 
18 1 6.9864 1.1416 0 
19 1 7.2504 2.5208 0 
20 1 7.7832 5.2568 0 
21 1 8.0507 0.23079 0 
22 1 8.6084 2.9769 0 
23 1 8.8665 4.3277 0 
24 1 9.3393 0.67959 0 
25 1 9.6075 2.0774 0 
26 1 10.157 4.8002 0 
27 1 10.422 6.1758 0 
28 1 11.027 2.52 0 
29 1 11.289 3.8484 0 
30 1 11.669 0.22188 0 
31 1 11.919 1.6562 0 
32 1 12.483 4.3159 0 
33 1 12.808 5.7421 0 
34 1 13.593 2.0926 0 
35 1 13.765 3.2909 0 
36 1 13.776 6.0805 0 
37 1 14.187 1.4184 0 
38 1 15 5.3266 0 
39 1 15 3.9787 0 
40 1 15.812 1.4183 0 
41 1 16.223 6.0805 0 
42 1 16.234 3.2909 0 
43 1 16.407 2.0926 0 
44 1 17.191 5.7421 0 
45 1 17.516 4.3159 0 
46 1 18.081 1.6562 0 
47 1 18.331 0.2219 0 
48 1 18.71 3.8484 0 
49 1 18.973 2.52 0 
50 1 19.577 6.1757 0 
51 1 19.843 4.8003 0 
52 1 20.392 2.0773 0 
53 1 20.66 0.67962 0 
54 1 21.133 4.3277 0 
55 1 21.391 2.9769 0 
56 1 21.949 0.23072 0 
57 1 22.216 5.2568 0 
58 1 22.749 2.5207 0 
59 1 23.013 1.1416 0 
60 1 23.524 4.7954 0 
61 1 23.787 3.4313 0 
62 1 24.324 0.68677 0 
63 1 24.589 5.7152 0 
64 1 25.119 2.974 0 
65 1 25.382 1.5997 0 
66 1 25.907 5.2563 0 
67 1 26.17 3.8872 0 
68 1 26.7 1.143 0 
69 1 26.964 6.1723 0 
70 1 27.492 3.4291 0 
71 1 27.756 2.0574 0 
72 1 28.284 5.7151 0 
73 1 28.548 4.3435 0 
74 1 29.076 1.6002 0 
75 1 29.34 0.22861 0 
76 1 29.868 3.8863 0 
77 1 30.132 2.5147 0 
78 1 30.66 6.1723 0 
79 1 30.924 4.8007 0 
80 1 31.452 2.0574 0 
81 1 31.716 0.68582 0 
82 1 32.244 4.3435 0 
83 1 32.508 2.9719 0 
84 1 33.036 0.22861 0 
85 1 33.3 5.2579 0 
86 1 33.83 2.5137 0 
87 1 34.093 1.1446 0 
88 1 34.618 4.8012 0 
89 1 34.881 3.4269 0 
90 1 35.411 0.68572 0 
91 1 35.676 5.7142 0 
92 1 36.213 2.9697 0 
93 1 36.476 1.6056 0 
94 1 36.987 5.2593 0 
95 1 37.251 3.8803 0 
96 1 37.784 1.1441 0 
97 1 38.051 6.1702 0 
98 1 38.609 3.424 0 
99 1 38.867 2.0733 0 
100 1 39.34 5.7213 0 
101 1 39.608 4.3236 0 
102 1 40.157 1.6007 0 
103 1 40.423 0.2252 0 
104 1 41.027 3.8809 0 
105 1 41.29 2.5526 0 
106 1 41.669 6.179 0 
107 1 41.919 4.7448 0 
108 1 42.484 2.0851 0 
109 1 42.809 0.65882 0 
110 1 43.593 4.3083 0 
111 1 43.766 3.11 0 
112 1 43.777 0.32042 0 
113 1 44.188 4.9826 0 
114 1 45 2.4222 0 
115 1 45 1.0743 0 
116 1 45.813 4.9826 0 
117 1 46.224 0.32043 0 
118 1 46.235 3.11 0 
119 1 46.407 4.3084 0 
120 1 47.192 0.6588 0 
121 1 47.517 2.0851 0 
122 1 48.081 4.7448 0 
123 1 48.331 6.1791 0 
124 1 48.711 2.5525 0 
125 1 48.973 3.8809 0 
126 1 49.578 0.22515 0 
127 1 49.843 1.6007 0 
128 1 50.393 4.3236 0 
129 1 50.661 5.7214 0 
130 1 51.133 2.0732 0 
131 1 51.392 3.4241 0 
132 1 51.949 6.1702 0 
133 1 52.217 1.1442 0 
134 1 52.75 3.8802 0 
135 1 53.014 5.2593 0 
136 1 53.524 1.6055 0 
137 1 53.787 2.9697 0 
138 1 54.324 5.7141 0 
139 1 54.59 0.6858 0 
140 1 55.119 3.4269 0 
141 1 55.382 4.8013 0 
142 1 55.907 1.1445 0 
143 1 56.17 2.5138 0 
144 1 56.7 5.2579 0 
145 1 56.964 0.22861 0 
146 1 57.492 2.9719 0 
147 1 57.756 4.3435 0 
148 1 58.284 0.68582 0 
149 1 58.548 2.0574 0 
150 1 59.076 4.8007 0 
151 1 59.34 6.1723 0 
152 1 59.868 2.5147 0 
ITEM: TIMESTEP
210
ITEM: NUMBER OF ATOMS
152
ITEM: BOX BOUNDS xy xz yz pp pp pp
0.0000000000000000e+00 6.0000000000000000e+01 0.0000000000000000e+00
0.0000000000000000e+00 6.4011329999999997e+00 0.0000000000000000e+00
0.0000000000000000e+00 3.3399999999999999e+00 0.0000000000000000e+00
ITEM: ATOMS id type x y z 
1 1 0.130682 3.88499 0 
2 1 0.657221 0.22954 0 
3 1 0.917405 1.59881 0 
4 1 1.44503 4.34436 0 
5 1 1.70557 5.71355 0 
6 1 2.23155 2.05834 0 
7 1 2.49333 3.42731 0 
8 1 3.02009 6.17275 0 
9 1 3.27928 1.14109 0 
10 1 3.80787 3.88654 0 
11 1 4.06867 5.25564 0 
12 1 4.59296 1.60101 0 
13 1 4.8565 2.96966 0 
14 1 5.38353 5.71456 0 
15 1 5.63977 0.683511 0 
16 1 6.17144 3.42865 0 
17 1 6.43294 4.79751 0 
18 1 6.95209 1.14454 0 
19 1 7.22086 2.51228 0 
20 1 7.74884 5.25573 0 
21 1 7.99649 0.226536 0 
22 1 8.53681 2.97073 0 
23 1 8.80081 4.33854 0 
24 1 9.30474 0.691247 0 
25 1 9.58839 2.05602 0 
26 1 10.1199 4.79514 0 
27 1 10.3421 6.17369 0 
28 1 10.9066 2.51391 0 
29 1 11.1797 3.87391 0 
30 1 11.6412 0.243893 0 
31 1 11.968 1.61127 0 
32 1 12.5044 4.32885 0 
33 1 12.6471 5.70594 0 
34 1 13.3023 2.0864 0 
35 1 13.6382 3.44415 0 
36 1 13.8961 6.19415 0 
37 1 14.2968 1.14378 0 
38 1 15 5.36152 0 
39 1 15 3.97056 0 
40 1 15.7032 1.14378 0 
41 1 16.1039 6.19415 0 
42 1 16.3618 3.44415 0 
43 1 16.6977 2.0864 0 
44 1 17.3529 5.70594 0 
45 1 17.4956 4.32885 0 
46 1 18.032 1.61127 0 
47 1 18.3588 0.243893 0 
48 1 18.8203 3.87391 0 
49 1 19.0934 2.51391 0 
50 1 19.6579 6.17369 0 
51 1 19.8801 4.79514 0 
52 1 20.4116 2.05602 0 
53 1 20.6953 0.691247 0 
54 1 21.1992 4.33854 0 
55 1 21.4632 2.97073 0 
56 1 22.0035 0.226536 0 
57 1 22.2512 5.25573 0 
58 1 22.7791 2.51228 0 
59 1 23.0479 1.14454 0 
60 1 23.5671 4.79751 0 
61 1 23.8286 3.42865 0 
62 1 24.3602 0.683511 0 
63 1 24.6165 5.71456 0 
64 1 25.1435 2.96966 0 
65 1 25.407 1.60101 0 
66 1 25.9313 5.25564 0 
67 1 26.1921 3.88654 0 
68 1 26.7207 1.14109 0 
69 1 26.9799 6.17275 0 
70 1 27.5067 3.42731 0 
71 1 27.7685 2.05834 0 
72 1 28.2944 5.71355 0 
73 1 28.555 4.34436 0 
74 1 29.0826 1.59881 0 
75 1 29.3428 0.22954 0 
76 1 29.8693 3.88499 0 
77 1 30.1307 2.51595 0 
78 1 30.6572 6.1714 0 
79 1 30.9174 4.80213 0 
80 1 31.445 2.05657 0 
81 1 31.7056 0.687391 0 
82 1 32.2315 4.3426 0 
83 1 32.4933 2.97363 0 
84 1 33.0201 0.228186 0 
85 1 33.2793 5.25985 0 
86 1 33.8079 2.5144 0 
87 1 34.0687 1.1453 0 
88 1 34.593 4.79993 0 
89 1 34.8565 3.43128 0 
90 1 35.3835 0.686375 0 
91 1 35.6398 5.71743 0 
92 1 36.1714 2.97229 0 
93 1 36.4329 1.60343 0 
94 1 36.9521 5.2564 0 
95 1 37.2209 3.88866 0 
96 1 37.7488 1.14521 0 
97 1 37.9965 6.1744 0 
98 1 38.5368 3.4302 0 
99 1 38.8008 2.0624 0 
100 1 39.3047 5.70969 0 
101 1 39.5884 4.34492 0 
102 1 40.1199 1.6058 0 
103 1 40.3421 0.227244 0 
104 1 40.9066 3.88703 0 
105 1 41.1797 2.52703 0 
106 1 41.6412 6.15705 0 
107 1 41.968 4.78967 0 
108 1 42.5044 2.07209 0 
109 1 42.6471 0.694996 0 
110 1 43.3023 4.31454 0 
111 1 43.6382 2.95679 0 
112 1 43.8961 0.206794 0 
113 1 44.2968 5.25716 0 
114 1 45 2.43038 0 
115 1 45 1.03941 0 
116 1 45.7032 5.25716 0 
117 1 46.1039 0.206794 0 
118 1 46.3618 2.95679 0 
119 1 46.6977 4.31454 0 
120 1 47.3529 0.694996 0 
121 1 47.4956 2.07209 0 
122 1 48.032 4.78967 0 
123 1 48.3588 6.15705 0 
124 1 48.8203 2.52703 0 
125 1 49.0934 3.88703 0 
126 1 49.6579 0.227244 0 
127 1 49.8801 1.6058 0 
128 1 50.4116 4.34492 0 
129 1 50.6953 5.70969 0 
130 1 51.1992 2.0624 0 
131 1 51.4632 3.4302 0 
132 1 52.0035 6.1744 0 
133 1 52.2512 1.14521 0 
134 1 52.7791 3.88866 0 
135 1 53.0479 5.2564 0 
136 1 53.5671 1.60343 0 
137 1 53.8286 2.97229 0 
138 1 54.3602 5.71743 0 
139 1 54.6165 0.686375 0 
140 1 55.1435 3.43128 0 
141 1 55.407 4.79993 0 
142 1 55.9313 1.1453 0 
143 1 56.1921 2.5144 0 
144 1 56.7207 5.25985 0 
145 1 56.9799 0.228186 0 
146 1 57.5067 2.97363 0 
147 1 57.7685 4.3426 0 
148 1 58.2944 0.687391 0 
149 1 58.555 2.05657 0 
150 1 59.0826 4.80213 0 
151 1 59.3428 6.1714 0 
152 1 59.8693 2.51595 0 
