#GB_1Periodic.lammps (written by ASE)

152	atoms
1	atom types
-0.01	60	xlo xhi
-0.01	6.40094173	ylo yhi
-3.49	3.49	zlo zhi


Atoms

	1	1 25.90662 5.2563238 5
	2	1 26.9643405 6.17233667 5
	3	1 28.2841925 5.71512655 5
	4	1 36.475862 1.6055615 5
	5	1 38.8670228 2.07325036 5
	6	1 37.7836291 1.14410565 5
	7	1 34.09338 1.14461793 5
	8	1 35.4106766 0.685717122 5
	9	1 24.5893234 5.71522461 5
	10	1 28.5481629 4.34349617 5
	11	1 39.3399374 5.72132081 5
	12	1 38.6089146 3.424045 5
	13	1 39.6080456 4.32361065 5
	14	1 33.0356595 0.228605062 5
	15	1 41.6694345 6.17904117 5
	16	1 40.1571909 1.60067297 5
	17	1 40.4230424 0.225196168 5
	18	1 42.8085924 0.658821469 5
	19	1 45.0003967 2.42219873 5
	20	1 59.340074 6.17233667 5
	21	1 26.7003702 1.14302531 5
	22	1 27.7562517 2.05744556 5
	23	1 27.4922813 3.42907593 5
	24	1 26.1697688 3.88720769 5
	25	1 36.2133284 2.96966646 5
	26	1 37.250753 3.880258 5
	27	1 38.0510963 6.17021748 5
	28	1 36.9867516 5.2592939 5
	29	1 35.6756856 5.71416793 5
	30	1 29.340074 0.228605062 5
	31	1 29.0761036 1.60023543 5
	32	1 31.7158075 0.685815185 5
	33	1 25.1185075 2.9740142 5
	34	1 25.3820398 1.59970836 5
	35	1 43.7662388 3.11002253 5
	36	1 43.5934729 4.30833203 5
	37	1 41.2895275 2.55256709 5
	38	1 42.4839261 2.08505648 5
	39	1 41.0273587 3.88090982 5
	40	1 41.9193949 4.7447844 5
	41	1 43.777116 0.320421907 5
	42	1 45.0003989 1.07433408 5
	43	1 47.5168392 2.08508033 5
	44	1 46.2345201 3.11000998 5
	45	1 0.131985194 3.88628605 5
	46	1 6.98635555 1.14160019 5
	47	1 9.33933372 0.679585009 5
	48	1 8.05069769 0.230790885 5
	49	1 56.9643405 0.228605062 5
	50	1 56.7003702 5.25791642 5
	51	1 14.9996033 3.978743 5
	52	1 14.9996011 5.32660765 5
	53	1 16.2337612 3.2909192 5
	54	1 17.5160739 4.31588525 5
	55	1 16.222884 6.08051982 5
	56	1 17.1914076 5.74212026 5
	57	1 30.659926 6.17233667 5
	58	1 33.8302312 2.51373404 5
	59	1 34.8814925 3.42692753 5
	60	1 33.2996298 5.25791642 5
	61	1 34.6179602 4.80123338 5
	62	1 24.3243144 0.686773804 5
	63	1 47.192144 0.658797851 5
	64	1 46.2237119 0.320432297 5
	65	1 48.7111283 2.55253075 5
	66	1 48.9733289 3.88093761 5
	67	1 1.71580752 5.71512655 5
	68	1 1.45183713 4.34349617 5
	69	1 3.03565946 6.17233667 5
	70	1 11.6686862 0.221879454 5
	71	1 14.1872347 1.41835368 5
	72	1 49.577563 0.225148715 5
	73	1 51.1334688 2.07319452 5
	74	1 49.8434502 1.60070972 5
	75	1 54.324434 5.71408108 5
	76	1 55.382181 4.80128231 5
	77	1 23.524138 4.79538023 5
	78	1 22.2163709 5.25683608 5
	79	1 23.7866716 3.43127527 5
	80	1 15.8119598 1.418335 5
	81	1 16.4065271 2.0926097 5
	82	1 19.5769576 6.17574556 5
	83	1 13.7762881 6.08050943 5
	84	1 9.60748368 2.07738526 5
	85	1 30.1319852 2.51465568 5
	86	1 30.9238964 4.8007063 5
	87	1 29.8680148 3.88628605 5
	88	1 31.4518371 2.05744556 5
	89	1 32.5077187 2.9718658 5
	90	1 32.2437483 4.34349617 5
	91	1 44.1880402 4.98260673 5
	92	1 2.2437483 2.05744556 5
	93	1 2.50771869 3.42907593 5
	94	1 5.67556599 0.686860651 5
	95	1 4.61781899 1.59965942 5
	96	1 3.29962985 1.14302531 5
	97	1 0.923896358 1.60023543 5
	98	1 0.65992597 0.228605062 5
	99	1 4.88138675 2.97408255 5
	100	1 3.83011065 3.88716594 5
	101	1 5.41049133 5.71514232 5
	102	1 4.09329853 5.25639437 5
	103	1 59.0761036 4.8007063 5
	104	1 57.7562517 4.34349617 5
	105	1 57.4922813 2.9718658 5
	106	1 52.7495875 3.88018562 5
	107	1 51.3916182 3.4240786 5
	108	1 50.3925163 4.32355647 5
	109	1 53.0136445 5.25934154 5
	110	1 50.6606663 5.72135672 5
	111	1 51.9493023 6.17015085 5
	112	1 56.1698893 2.51377579 5
	113	1 55.1186132 3.42685918 5
	114	1 55.9067015 1.14454736 5
	115	1 53.7870015 2.96969541 5
	116	1 21.9489037 0.230724247 5
	117	1 23.0132484 1.14164783 5
	118	1 22.749247 2.52068373 5
	119	1 11.9186703 1.65618939 5
	120	1 11.0266711 2.52000412 5
	121	1 13.7654799 3.29093175 5
	122	1 13.5927071 2.09258895 5
	123	1 12.807856 5.74214388 5
	124	1 12.4831608 4.3158614 5
	125	1 11.2888717 3.84841098 5
	126	1 8.60838178 2.97686313 5
	127	1 6.47557084 4.79544383 5
	128	1 7.25041251 2.52075611 5
	129	1 6.21299854 3.43124632 5
	130	1 54.5895087 0.685799406 5
	131	1 52.2168166 1.14415824 5
	132	1 53.5244292 1.6054979 5
	133	1 46.4072929 4.30835278 5
	134	1 45.8127653 4.98258805 5
	135	1 48.0813297 4.74475234 5
	136	1 48.3313138 6.17906228 5
	137	1 21.3910854 2.97689673 5
	138	1 19.8428091 4.80026876 5
	139	1 21.1329772 4.32769137 5
	140	1 18.7104725 3.84837464 5
	141	1 10.422437 6.17579302 5
	142	1 7.78318342 5.25678349 5
	143	1 10.1565498 4.80023201 5
	144	1 8.86653118 4.32774721 5
	145	1 58.5481629 2.05744556 5
	146	1 58.2841925 0.685815185 5
	147	1 59.8680148 2.51465568 5
	148	1 18.0806051 1.65615733 5
	149	1 18.9726413 2.52003191 5
	150	1 20.3919544 2.07733108 5
	151	1 20.6600626 0.679620921 5
	152	1 18.3305655 0.221900563 5
