#
2280	 atoms
 1	 atom types


 0.131985 180.000000	 xlo xhi
 0.221879 32.005666	 ylo yhi
 -20.000000 20.000000	 zlo zhi
 0.000000 0.000000 0.000000	 xy xz yz


Masses

 1 12.010000

Atoms

1 1 0.13199 3.8863 0
2 1 0.65993 0.22861 0
3 1 0.9239 1.6002 0
4 1 1.4518 4.3435 0
5 1 1.7158 5.7151 0
6 1 2.2437 2.0574 0
7 1 2.5077 3.4291 0
8 1 3.0357 6.1723 0
9 1 3.2996 1.143 0
10 1 3.8301 3.8872 0
11 1 4.0933 5.2564 0
12 1 4.6178 1.5997 0
13 1 4.8814 2.9741 0
14 1 5.4105 5.7151 0
15 1 5.6756 0.68686 0
16 1 6.213 3.4312 0
17 1 6.4756 4.7954 0
18 1 6.9864 1.1416 0
19 1 7.2504 2.5208 0
20 1 7.7832 5.2568 0
21 1 8.0507 0.23079 0
22 1 8.6084 2.9769 0
23 1 8.8665 4.3277 0
24 1 9.3393 0.67959 0
25 1 9.6075 2.0774 0
26 1 10.157 4.8002 0
27 1 10.422 6.1758 0
28 1 11.027 2.52 0
29 1 11.289 3.8484 0
30 1 11.669 0.22188 0
31 1 11.919 1.6562 0
32 1 12.483 4.3159 0
33 1 12.808 5.7421 0
34 1 13.593 2.0926 0
35 1 13.765 3.2909 0
36 1 13.776 6.0805 0
37 1 14.187 1.4184 0
38 1 15 5.3266 0
39 1 15 3.9787 0
40 1 15.812 1.4183 0
41 1 16.223 6.0805 0
42 1 16.234 3.2909 0
43 1 16.407 2.0926 0
44 1 17.191 5.7421 0
45 1 17.516 4.3159 0
46 1 18.081 1.6562 0
47 1 18.331 0.2219 0
48 1 18.71 3.8484 0
49 1 18.973 2.52 0
50 1 19.577 6.1757 0
51 1 19.843 4.8003 0
52 1 20.392 2.0773 0
53 1 20.66 0.67962 0
54 1 21.133 4.3277 0
55 1 21.391 2.9769 0
56 1 21.949 0.23072 0
57 1 22.216 5.2568 0
58 1 22.749 2.5207 0
59 1 23.013 1.1416 0
60 1 23.524 4.7954 0
61 1 23.787 3.4313 0
62 1 24.324 0.68677 0
63 1 24.589 5.7152 0
64 1 25.119 2.974 0
65 1 25.382 1.5997 0
66 1 25.907 5.2563 0
67 1 26.17 3.8872 0
68 1 26.7 1.143 0
69 1 26.964 6.1723 0
70 1 27.492 3.4291 0
71 1 27.756 2.0574 0
72 1 28.284 5.7151 0
73 1 28.548 4.3435 0
74 1 29.076 1.6002 0
75 1 29.34 0.22861 0
76 1 29.868 3.8863 0
77 1 30.132 2.5147 0
78 1 30.66 6.1723 0
79 1 30.924 4.8007 0
80 1 31.452 2.0574 0
81 1 31.716 0.68582 0
82 1 32.244 4.3435 0
83 1 32.508 2.9719 0
84 1 33.036 0.22861 0
85 1 33.3 5.2579 0
86 1 33.83 2.5137 0
87 1 34.093 1.1446 0
88 1 34.618 4.8012 0
89 1 34.881 3.4269 0
90 1 35.411 0.68572 0
91 1 35.676 5.7142 0
92 1 36.213 2.9697 0
93 1 36.476 1.6056 0
94 1 36.987 5.2593 0
95 1 37.251 3.8803 0
96 1 37.784 1.1441 0
97 1 38.051 6.1702 0
98 1 38.609 3.424 0
99 1 38.867 2.0733 0
100 1 39.34 5.7213 0
101 1 39.608 4.3236 0
102 1 40.157 1.6007 0
103 1 40.423 0.2252 0
104 1 41.027 3.8809 0
105 1 41.29 2.5526 0
106 1 41.669 6.179 0
107 1 41.919 4.7448 0
108 1 42.484 2.0851 0
109 1 42.809 0.65882 0
110 1 43.593 4.3083 0
111 1 43.766 3.11 0
112 1 43.777 0.32042 0
113 1 44.188 4.9826 0
114 1 45 2.4222 0
115 1 45 1.0743 0
116 1 45.813 4.9826 0
117 1 46.224 0.32043 0
118 1 46.235 3.11 0
119 1 46.407 4.3084 0
120 1 47.192 0.6588 0
121 1 47.517 2.0851 0
122 1 48.081 4.7448 0
123 1 48.331 6.1791 0
124 1 48.711 2.5525 0
125 1 48.973 3.8809 0
126 1 49.578 0.22515 0
127 1 49.843 1.6007 0
128 1 50.393 4.3236 0
129 1 50.661 5.7214 0
130 1 51.133 2.0732 0
131 1 51.392 3.4241 0
132 1 51.949 6.1702 0
133 1 52.217 1.1442 0
134 1 52.75 3.8802 0
135 1 53.014 5.2593 0
136 1 53.524 1.6055 0
137 1 53.787 2.9697 0
138 1 54.324 5.7141 0
139 1 54.59 0.6858 0
140 1 55.119 3.4269 0
141 1 55.382 4.8013 0
142 1 55.907 1.1445 0
143 1 56.17 2.5138 0
144 1 56.7 5.2579 0
145 1 56.964 0.22861 0
146 1 57.492 2.9719 0
147 1 57.756 4.3435 0
148 1 58.284 0.68582 0
149 1 58.548 2.0574 0
150 1 59.076 4.8007 0
151 1 59.34 6.1723 0
152 1 59.868 2.5147 0
153 1 0.13199 10.287 0
154 1 0.65993 6.6297 0
155 1 0.9239 8.0014 0
156 1 1.4518 10.745 0
157 1 1.7158 12.116 0
158 1 2.2437 8.4586 0
159 1 2.5077 9.8302 0
160 1 3.0357 12.573 0
161 1 3.2996 7.5442 0
162 1 3.8301 10.288 0
163 1 4.0933 11.658 0
164 1 4.6178 8.0008 0
165 1 4.8814 9.3752 0
166 1 5.4105 12.116 0
167 1 5.6756 7.088 0
168 1 6.213 9.8324 0
169 1 6.4756 11.197 0
170 1 6.9864 7.5427 0
171 1 7.2504 8.9219 0
172 1 7.7832 11.658 0
173 1 8.0507 6.6319 0
174 1 8.6084 9.378 0
175 1 8.8665 10.729 0
176 1 9.3393 7.0807 0
177 1 9.6075 8.4785 0
178 1 10.157 11.201 0
179 1 10.422 12.577 0
180 1 11.027 8.9211 0
181 1 11.289 10.25 0
182 1 11.669 6.623 0
183 1 11.919 8.0573 0
184 1 12.483 10.717 0
185 1 12.808 12.143 0
186 1 13.593 8.4937 0
187 1 13.765 9.6921 0
188 1 13.776 12.482 0
189 1 14.187 7.8195 0
190 1 15 11.728 0
191 1 15 10.38 0
192 1 15.812 7.8195 0
193 1 16.223 12.482 0
194 1 16.234 9.6921 0
195 1 16.407 8.4937 0
196 1 17.191 12.143 0
197 1 17.516 10.717 0
198 1 18.081 8.0573 0
199 1 18.331 6.623 0
200 1 18.71 10.25 0
201 1 18.973 8.9212 0
202 1 19.577 12.577 0
203 1 19.843 11.201 0
204 1 20.392 8.4785 0
205 1 20.66 7.0808 0
206 1 21.133 10.729 0
207 1 21.391 9.378 0
208 1 21.949 6.6319 0
209 1 22.216 11.658 0
210 1 22.749 8.9218 0
211 1 23.013 7.5428 0
212 1 23.524 11.197 0
213 1 23.787 9.8324 0
214 1 24.324 7.0879 0
215 1 24.589 12.116 0
216 1 25.119 9.3751 0
217 1 25.382 8.0008 0
218 1 25.907 11.657 0
219 1 26.17 10.288 0
220 1 26.7 7.5442 0
221 1 26.964 12.573 0
222 1 27.492 9.8302 0
223 1 27.756 8.4586 0
224 1 28.284 12.116 0
225 1 28.548 10.745 0
226 1 29.076 8.0014 0
227 1 29.34 6.6297 0
228 1 29.868 10.287 0
229 1 30.132 8.9158 0
230 1 30.66 12.573 0
231 1 30.924 11.202 0
232 1 31.452 8.4586 0
233 1 31.716 7.0869 0
234 1 32.244 10.745 0
235 1 32.508 9.373 0
236 1 33.036 6.6297 0
237 1 33.3 11.659 0
238 1 33.83 8.9149 0
239 1 34.093 7.5458 0
240 1 34.618 11.202 0
241 1 34.881 9.8281 0
242 1 35.411 7.0869 0
243 1 35.676 12.115 0
244 1 36.213 9.3708 0
245 1 36.476 8.0067 0
246 1 36.987 11.66 0
247 1 37.251 10.281 0
248 1 37.784 7.5452 0
249 1 38.051 12.571 0
250 1 38.609 9.8252 0
251 1 38.867 8.4744 0
252 1 39.34 12.122 0
253 1 39.608 10.725 0
254 1 40.157 8.0018 0
255 1 40.423 6.6263 0
256 1 41.027 10.282 0
257 1 41.29 8.9537 0
258 1 41.669 12.58 0
259 1 41.919 11.146 0
260 1 42.484 8.4862 0
261 1 42.809 7.06 0
262 1 43.593 10.709 0
263 1 43.766 9.5112 0
264 1 43.777 6.7216 0
265 1 44.188 11.384 0
266 1 45 8.8233 0
267 1 45 7.4755 0
268 1 45.813 11.384 0
269 1 46.224 6.7216 0
270 1 46.235 9.5111 0
271 1 46.407 10.709 0
272 1 47.192 7.0599 0
273 1 47.517 8.4862 0
274 1 48.081 11.146 0
275 1 48.331 12.58 0
276 1 48.711 8.9537 0
277 1 48.973 10.282 0
278 1 49.578 6.6263 0
279 1 49.843 8.0018 0
280 1 50.393 10.725 0
281 1 50.661 12.122 0
282 1 51.133 8.4743 0
283 1 51.392 9.8252 0
284 1 51.949 12.571 0
285 1 52.217 7.5453 0
286 1 52.75 10.281 0
287 1 53.014 11.66 0
288 1 53.524 8.0066 0
289 1 53.787 9.3708 0
290 1 54.324 12.115 0
291 1 54.59 7.0869 0
292 1 55.119 9.828 0
293 1 55.382 11.202 0
294 1 55.907 7.5457 0
295 1 56.17 8.9149 0
296 1 56.7 11.659 0
297 1 56.964 6.6297 0
298 1 57.492 9.373 0
299 1 57.756 10.745 0
300 1 58.284 7.0869 0
301 1 58.548 8.4586 0
302 1 59.076 11.202 0
303 1 59.34 12.573 0
304 1 59.868 8.9158 0
305 1 0.13199 16.689 0
306 1 0.65993 13.031 0
307 1 0.9239 14.403 0
308 1 1.4518 17.146 0
309 1 1.7158 18.517 0
310 1 2.2437 14.86 0
311 1 2.5077 16.231 0
312 1 3.0357 18.975 0
313 1 3.2996 13.945 0
314 1 3.8301 16.689 0
315 1 4.0933 18.059 0
316 1 4.6178 14.402 0
317 1 4.8814 15.776 0
318 1 5.4105 18.517 0
319 1 5.6756 13.489 0
320 1 6.213 16.234 0
321 1 6.4756 17.598 0
322 1 6.9864 13.944 0
323 1 7.2504 15.323 0
324 1 7.7832 18.059 0
325 1 8.0507 13.033 0
326 1 8.6084 15.779 0
327 1 8.8665 17.13 0
328 1 9.3393 13.482 0
329 1 9.6075 14.88 0
330 1 10.157 17.602 0
331 1 10.422 18.978 0
332 1 11.027 15.322 0
333 1 11.289 16.651 0
334 1 11.669 13.024 0
335 1 11.919 14.458 0
336 1 12.483 17.118 0
337 1 12.808 18.544 0
338 1 13.593 14.895 0
339 1 13.765 16.093 0
340 1 13.776 18.883 0
341 1 14.187 14.221 0
342 1 15 18.129 0
343 1 15 16.781 0
344 1 15.812 14.221 0
345 1 16.223 18.883 0
346 1 16.234 16.093 0
347 1 16.407 14.895 0
348 1 17.191 18.544 0
349 1 17.516 17.118 0
350 1 18.081 14.458 0
351 1 18.331 13.024 0
352 1 18.71 16.651 0
353 1 18.973 15.322 0
354 1 19.577 18.978 0
355 1 19.843 17.603 0
356 1 20.392 14.88 0
357 1 20.66 13.482 0
358 1 21.133 17.13 0
359 1 21.391 15.779 0
360 1 21.949 13.033 0
361 1 22.216 18.059 0
362 1 22.749 15.323 0
363 1 23.013 13.944 0
364 1 23.524 17.598 0
365 1 23.787 16.234 0
366 1 24.324 13.489 0
367 1 24.589 18.517 0
368 1 25.119 15.776 0
369 1 25.382 14.402 0
370 1 25.907 18.059 0
371 1 26.17 16.689 0
372 1 26.7 13.945 0
373 1 26.964 18.975 0
374 1 27.492 16.231 0
375 1 27.756 14.86 0
376 1 28.284 18.517 0
377 1 28.548 17.146 0
378 1 29.076 14.403 0
379 1 29.34 13.031 0
380 1 29.868 16.689 0
381 1 30.132 15.317 0
382 1 30.66 18.975 0
383 1 30.924 17.603 0
384 1 31.452 14.86 0
385 1 31.716 13.488 0
386 1 32.244 17.146 0
387 1 32.508 15.774 0
388 1 33.036 13.031 0
389 1 33.3 18.06 0
390 1 33.83 15.316 0
391 1 34.093 13.947 0
392 1 34.618 17.603 0
393 1 34.881 16.229 0
394 1 35.411 13.488 0
395 1 35.676 18.516 0
396 1 36.213 15.772 0
397 1 36.476 14.408 0
398 1 36.987 18.062 0
399 1 37.251 16.683 0
400 1 37.784 13.946 0
401 1 38.051 18.972 0
402 1 38.609 16.226 0
403 1 38.867 14.876 0
404 1 39.34 18.524 0
405 1 39.608 17.126 0
406 1 40.157 14.403 0
407 1 40.423 13.027 0
408 1 41.027 16.683 0
409 1 41.29 15.355 0
410 1 41.669 18.981 0
411 1 41.919 17.547 0
412 1 42.484 14.887 0
413 1 42.809 13.461 0
414 1 43.593 17.111 0
415 1 43.766 15.912 0
416 1 43.777 13.123 0
417 1 44.188 17.785 0
418 1 45 15.224 0
419 1 45 13.877 0
420 1 45.813 17.785 0
421 1 46.224 13.123 0
422 1 46.235 15.912 0
423 1 46.407 17.111 0
424 1 47.192 13.461 0
425 1 47.517 14.887 0
426 1 48.081 17.547 0
427 1 48.331 18.981 0
428 1 48.711 15.355 0
429 1 48.973 16.683 0
430 1 49.578 13.027 0
431 1 49.843 14.403 0
432 1 50.393 17.126 0
433 1 50.661 18.524 0
434 1 51.133 14.875 0
435 1 51.392 16.226 0
436 1 51.949 18.972 0
437 1 52.217 13.946 0
438 1 52.75 16.682 0
439 1 53.014 18.062 0
440 1 53.524 14.408 0
441 1 53.787 15.772 0
442 1 54.324 18.516 0
443 1 54.59 13.488 0
444 1 55.119 16.229 0
445 1 55.382 17.604 0
446 1 55.907 13.947 0
447 1 56.17 15.316 0
448 1 56.7 18.06 0
449 1 56.964 13.031 0
450 1 57.492 15.774 0
451 1 57.756 17.146 0
452 1 58.284 13.488 0
453 1 58.548 14.86 0
454 1 59.076 17.603 0
455 1 59.34 18.975 0
456 1 59.868 15.317 0
457 1 0.13199 23.09 0
458 1 0.65993 19.432 0
459 1 0.9239 20.804 0
460 1 1.4518 23.547 0
461 1 1.7158 24.919 0
462 1 2.2437 21.261 0
463 1 2.5077 22.632 0
464 1 3.0357 25.376 0
465 1 3.2996 20.346 0
466 1 3.8301 23.091 0
467 1 4.0933 24.46 0
468 1 4.6178 20.803 0
469 1 4.8814 22.177 0
470 1 5.4105 24.919 0
471 1 5.6756 19.89 0
472 1 6.213 22.635 0
473 1 6.4756 23.999 0
474 1 6.9864 20.345 0
475 1 7.2504 21.724 0
476 1 7.7832 24.46 0
477 1 8.0507 19.434 0
478 1 8.6084 22.18 0
479 1 8.8665 23.531 0
480 1 9.3393 19.883 0
481 1 9.6075 21.281 0
482 1 10.157 24.004 0
483 1 10.422 25.379 0
484 1 11.027 21.723 0
485 1 11.289 23.052 0
486 1 11.669 19.425 0
487 1 11.919 20.86 0
488 1 12.483 23.519 0
489 1 12.808 24.946 0
490 1 13.593 21.296 0
491 1 13.765 22.494 0
492 1 13.776 25.284 0
493 1 14.187 20.622 0
494 1 15 24.53 0
495 1 15 23.182 0
496 1 15.812 20.622 0
497 1 16.223 25.284 0
498 1 16.234 22.494 0
499 1 16.407 21.296 0
500 1 17.191 24.946 0
501 1 17.516 23.519 0
502 1 18.081 20.86 0
503 1 18.331 19.425 0
504 1 18.71 23.052 0
505 1 18.973 21.723 0
506 1 19.577 25.379 0
507 1 19.843 24.004 0
508 1 20.392 21.281 0
509 1 20.66 19.883 0
510 1 21.133 23.531 0
511 1 21.391 22.18 0
512 1 21.949 19.434 0
513 1 22.216 24.46 0
514 1 22.749 21.724 0
515 1 23.013 20.345 0
516 1 23.524 23.999 0
517 1 23.787 22.635 0
518 1 24.324 19.89 0
519 1 24.589 24.919 0
520 1 25.119 22.177 0
521 1 25.382 20.803 0
522 1 25.907 24.46 0
523 1 26.17 23.091 0
524 1 26.7 20.346 0
525 1 26.964 25.376 0
526 1 27.492 22.632 0
527 1 27.756 21.261 0
528 1 28.284 24.919 0
529 1 28.548 23.547 0
530 1 29.076 20.804 0
531 1 29.34 19.432 0
532 1 29.868 23.09 0
533 1 30.132 21.718 0
534 1 30.66 25.376 0
535 1 30.924 24.004 0
536 1 31.452 21.261 0
537 1 31.716 19.889 0
538 1 32.244 23.547 0
539 1 32.508 22.175 0
540 1 33.036 19.432 0
541 1 33.3 24.461 0
542 1 33.83 21.717 0
543 1 34.093 20.348 0
544 1 34.618 24.005 0
545 1 34.881 22.63 0
546 1 35.411 19.889 0
547 1 35.676 24.918 0
548 1 36.213 22.173 0
549 1 36.476 20.809 0
550 1 36.987 24.463 0
551 1 37.251 23.084 0
552 1 37.784 20.348 0
553 1 38.051 25.374 0
554 1 38.609 22.627 0
555 1 38.867 21.277 0
556 1 39.34 24.925 0
557 1 39.608 23.527 0
558 1 40.157 20.804 0
559 1 40.423 19.429 0
560 1 41.027 23.084 0
561 1 41.29 21.756 0
562 1 41.669 25.382 0
563 1 41.919 23.948 0
564 1 42.484 21.288 0
565 1 42.809 19.862 0
566 1 43.593 23.512 0
567 1 43.766 22.313 0
568 1 43.777 19.524 0
569 1 44.188 24.186 0
570 1 45 21.626 0
571 1 45 20.278 0
572 1 45.813 24.186 0
573 1 46.224 19.524 0
574 1 46.235 22.313 0
575 1 46.407 23.512 0
576 1 47.192 19.862 0
577 1 47.517 21.288 0
578 1 48.081 23.948 0
579 1 48.331 25.382 0
580 1 48.711 21.756 0
581 1 48.973 23.084 0
582 1 49.578 19.429 0
583 1 49.843 20.804 0
584 1 50.393 23.527 0
585 1 50.661 24.925 0
586 1 51.133 21.277 0
587 1 51.392 22.627 0
588 1 51.949 25.374 0
589 1 52.217 20.348 0
590 1 52.75 23.084 0
591 1 53.014 24.463 0
592 1 53.524 20.809 0
593 1 53.787 22.173 0
594 1 54.324 24.917 0
595 1 54.59 19.889 0
596 1 55.119 22.63 0
597 1 55.382 24.005 0
598 1 55.907 20.348 0
599 1 56.17 21.717 0
600 1 56.7 24.461 0
601 1 56.964 19.432 0
602 1 57.492 22.175 0
603 1 57.756 23.547 0
604 1 58.284 19.889 0
605 1 58.548 21.261 0
606 1 59.076 24.004 0
607 1 59.34 25.376 0
608 1 59.868 21.718 0
609 1 0.13199 29.491 0
610 1 0.65993 25.833 0
611 1 0.9239 27.205 0
612 1 1.4518 29.948 0
613 1 1.7158 31.32 0
614 1 2.2437 27.662 0
615 1 2.5077 29.034 0
616 1 3.0357 31.777 0
617 1 3.2996 26.748 0
618 1 3.8301 29.492 0
619 1 4.0933 30.861 0
620 1 4.6178 27.204 0
621 1 4.8814 28.579 0
622 1 5.4105 31.32 0
623 1 5.6756 26.291 0
624 1 6.213 29.036 0
625 1 6.4756 30.4 0
626 1 6.9864 26.746 0
627 1 7.2504 28.125 0
628 1 7.7832 30.861 0
629 1 8.0507 25.835 0
630 1 8.6084 28.581 0
631 1 8.8665 29.932 0
632 1 9.3393 26.284 0
633 1 9.6075 27.682 0
634 1 10.157 30.405 0
635 1 10.422 31.78 0
636 1 11.027 28.125 0
637 1 11.289 29.453 0
638 1 11.669 25.826 0
639 1 11.919 27.261 0
640 1 12.483 29.92 0
641 1 12.808 31.347 0
642 1 13.593 27.697 0
643 1 13.765 28.895 0
644 1 13.776 31.685 0
645 1 14.187 27.023 0
646 1 15 30.931 0
647 1 15 29.583 0
648 1 15.812 27.023 0
649 1 16.223 31.685 0
650 1 16.234 28.895 0
651 1 16.407 27.697 0
652 1 17.191 31.347 0
653 1 17.516 29.92 0
654 1 18.081 27.261 0
655 1 18.331 25.826 0
656 1 18.71 29.453 0
657 1 18.973 28.125 0
658 1 19.577 31.78 0
659 1 19.843 30.405 0
660 1 20.392 27.682 0
661 1 20.66 26.284 0
662 1 21.133 29.932 0
663 1 21.391 28.581 0
664 1 21.949 25.835 0
665 1 22.216 30.861 0
666 1 22.749 28.125 0
667 1 23.013 26.746 0
668 1 23.524 30.4 0
669 1 23.787 29.036 0
670 1 24.324 26.291 0
671 1 24.589 31.32 0
672 1 25.119 28.579 0
673 1 25.382 27.204 0
674 1 25.907 30.861 0
675 1 26.17 29.492 0
676 1 26.7 26.748 0
677 1 26.964 31.777 0
678 1 27.492 29.034 0
679 1 27.756 27.662 0
680 1 28.284 31.32 0
681 1 28.548 29.948 0
682 1 29.076 27.205 0
683 1 29.34 25.833 0
684 1 29.868 29.491 0
685 1 30.132 28.119 0
686 1 30.66 31.777 0
687 1 30.924 30.405 0
688 1 31.452 27.662 0
689 1 31.716 26.29 0
690 1 32.244 29.948 0
691 1 32.508 28.576 0
692 1 33.036 25.833 0
693 1 33.3 30.862 0
694 1 33.83 28.118 0
695 1 34.093 26.749 0
696 1 34.618 30.406 0
697 1 34.881 29.031 0
698 1 35.411 26.29 0
699 1 35.676 31.319 0
700 1 36.213 28.574 0
701 1 36.476 27.21 0
702 1 36.987 30.864 0
703 1 37.251 29.485 0
704 1 37.784 26.749 0
705 1 38.051 31.775 0
706 1 38.609 29.029 0
707 1 38.867 27.678 0
708 1 39.34 31.326 0
709 1 39.608 29.928 0
710 1 40.157 27.205 0
711 1 40.423 25.83 0
712 1 41.027 29.485 0
713 1 41.29 28.157 0
714 1 41.669 31.784 0
715 1 41.919 30.349 0
716 1 42.484 27.69 0
717 1 42.809 26.263 0
718 1 43.593 29.913 0
719 1 43.766 28.715 0
720 1 43.777 25.925 0
721 1 44.188 30.587 0
722 1 45 28.027 0
723 1 45 26.679 0
724 1 45.813 30.587 0
725 1 46.224 25.925 0
726 1 46.235 28.715 0
727 1 46.407 29.913 0
728 1 47.192 26.263 0
729 1 47.517 27.69 0
730 1 48.081 30.349 0
731 1 48.331 31.784 0
732 1 48.711 28.157 0
733 1 48.973 29.485 0
734 1 49.578 25.83 0
735 1 49.843 27.205 0
736 1 50.393 29.928 0
737 1 50.661 31.326 0
738 1 51.133 27.678 0
739 1 51.392 29.029 0
740 1 51.949 31.775 0
741 1 52.217 26.749 0
742 1 52.75 29.485 0
743 1 53.014 30.864 0
744 1 53.524 27.21 0
745 1 53.787 28.574 0
746 1 54.324 31.319 0
747 1 54.59 26.29 0
748 1 55.119 29.031 0
749 1 55.382 30.406 0
750 1 55.907 26.749 0
751 1 56.17 28.118 0
752 1 56.7 30.862 0
753 1 56.964 25.833 0
754 1 57.492 28.576 0
755 1 57.756 29.948 0
756 1 58.284 26.29 0
757 1 58.548 27.662 0
758 1 59.076 30.405 0
759 1 59.34 31.777 0
760 1 59.868 28.119 0
761 1 60.132 3.8863 0
762 1 60.66 0.22861 0
763 1 60.924 1.6002 0
764 1 61.452 4.3435 0
765 1 61.716 5.7151 0
766 1 62.244 2.0574 0
767 1 62.508 3.4291 0
768 1 63.036 6.1723 0
769 1 63.3 1.143 0
770 1 63.83 3.8872 0
771 1 64.093 5.2564 0
772 1 64.618 1.5997 0
773 1 64.881 2.9741 0
774 1 65.41 5.7151 0
775 1 65.676 0.68686 0
776 1 66.213 3.4312 0
777 1 66.476 4.7954 0
778 1 66.986 1.1416 0
779 1 67.25 2.5208 0
780 1 67.783 5.2568 0
781 1 68.051 0.23079 0
782 1 68.608 2.9769 0
783 1 68.867 4.3277 0
784 1 69.339 0.67959 0
785 1 69.607 2.0774 0
786 1 70.157 4.8002 0
787 1 70.422 6.1758 0
788 1 71.027 2.52 0
789 1 71.289 3.8484 0
790 1 71.669 0.22188 0
791 1 71.919 1.6562 0
792 1 72.483 4.3159 0
793 1 72.808 5.7421 0
794 1 73.593 2.0926 0
795 1 73.765 3.2909 0
796 1 73.776 6.0805 0
797 1 74.187 1.4184 0
798 1 75 5.3266 0
799 1 75 3.9787 0
800 1 75.812 1.4183 0
801 1 76.223 6.0805 0
802 1 76.234 3.2909 0
803 1 76.407 2.0926 0
804 1 77.191 5.7421 0
805 1 77.516 4.3159 0
806 1 78.081 1.6562 0
807 1 78.331 0.2219 0
808 1 78.71 3.8484 0
809 1 78.973 2.52 0
810 1 79.577 6.1757 0
811 1 79.843 4.8003 0
812 1 80.392 2.0773 0
813 1 80.66 0.67962 0
814 1 81.133 4.3277 0
815 1 81.391 2.9769 0
816 1 81.949 0.23072 0
817 1 82.216 5.2568 0
818 1 82.749 2.5207 0
819 1 83.013 1.1416 0
820 1 83.524 4.7954 0
821 1 83.787 3.4313 0
822 1 84.324 0.68677 0
823 1 84.589 5.7152 0
824 1 85.119 2.974 0
825 1 85.382 1.5997 0
826 1 85.907 5.2563 0
827 1 86.17 3.8872 0
828 1 86.7 1.143 0
829 1 86.964 6.1723 0
830 1 87.492 3.4291 0
831 1 87.756 2.0574 0
832 1 88.284 5.7151 0
833 1 88.548 4.3435 0
834 1 89.076 1.6002 0
835 1 89.34 0.22861 0
836 1 89.868 3.8863 0
837 1 90.132 2.5147 0
838 1 90.66 6.1723 0
839 1 90.924 4.8007 0
840 1 91.452 2.0574 0
841 1 91.716 0.68582 0
842 1 92.244 4.3435 0
843 1 92.508 2.9719 0
844 1 93.036 0.22861 0
845 1 93.3 5.2579 0
846 1 93.83 2.5137 0
847 1 94.093 1.1446 0
848 1 94.618 4.8012 0
849 1 94.881 3.4269 0
850 1 95.411 0.68572 0
851 1 95.676 5.7142 0
852 1 96.213 2.9697 0
853 1 96.476 1.6056 0
854 1 96.987 5.2593 0
855 1 97.251 3.8803 0
856 1 97.784 1.1441 0
857 1 98.051 6.1702 0
858 1 98.609 3.424 0
859 1 98.867 2.0733 0
860 1 99.34 5.7213 0
861 1 99.608 4.3236 0
862 1 100.16 1.6007 0
863 1 100.42 0.2252 0
864 1 101.03 3.8809 0
865 1 101.29 2.5526 0
866 1 101.67 6.179 0
867 1 101.92 4.7448 0
868 1 102.48 2.0851 0
869 1 102.81 0.65882 0
870 1 103.59 4.3083 0
871 1 103.77 3.11 0
872 1 103.78 0.32042 0
873 1 104.19 4.9826 0
874 1 105 2.4222 0
875 1 105 1.0743 0
876 1 105.81 4.9826 0
877 1 106.22 0.32043 0
878 1 106.23 3.11 0
879 1 106.41 4.3084 0
880 1 107.19 0.6588 0
881 1 107.52 2.0851 0
882 1 108.08 4.7448 0
883 1 108.33 6.1791 0
884 1 108.71 2.5525 0
885 1 108.97 3.8809 0
886 1 109.58 0.22515 0
887 1 109.84 1.6007 0
888 1 110.39 4.3236 0
889 1 110.66 5.7214 0
890 1 111.13 2.0732 0
891 1 111.39 3.4241 0
892 1 111.95 6.1702 0
893 1 112.22 1.1442 0
894 1 112.75 3.8802 0
895 1 113.01 5.2593 0
896 1 113.52 1.6055 0
897 1 113.79 2.9697 0
898 1 114.32 5.7141 0
899 1 114.59 0.6858 0
900 1 115.12 3.4269 0
901 1 115.38 4.8013 0
902 1 115.91 1.1445 0
903 1 116.17 2.5138 0
904 1 116.7 5.2579 0
905 1 116.96 0.22861 0
906 1 117.49 2.9719 0
907 1 117.76 4.3435 0
908 1 118.28 0.68582 0
909 1 118.55 2.0574 0
910 1 119.08 4.8007 0
911 1 119.34 6.1723 0
912 1 119.87 2.5147 0
913 1 60.132 10.287 0
914 1 60.66 6.6297 0
915 1 60.924 8.0014 0
916 1 61.452 10.745 0
917 1 61.716 12.116 0
918 1 62.244 8.4586 0
919 1 62.508 9.8302 0
920 1 63.036 12.573 0
921 1 63.3 7.5442 0
922 1 63.83 10.288 0
923 1 64.093 11.658 0
924 1 64.618 8.0008 0
925 1 64.881 9.3752 0
926 1 65.41 12.116 0
927 1 65.676 7.088 0
928 1 66.213 9.8324 0
929 1 66.476 11.197 0
930 1 66.986 7.5427 0
931 1 67.25 8.9219 0
932 1 67.783 11.658 0
933 1 68.051 6.6319 0
934 1 68.608 9.378 0
935 1 68.867 10.729 0
936 1 69.339 7.0807 0
937 1 69.607 8.4785 0
938 1 70.157 11.201 0
939 1 70.422 12.577 0
940 1 71.027 8.9211 0
941 1 71.289 10.25 0
942 1 71.669 6.623 0
943 1 71.919 8.0573 0
944 1 72.483 10.717 0
945 1 72.808 12.143 0
946 1 73.593 8.4937 0
947 1 73.765 9.6921 0
948 1 73.776 12.482 0
949 1 74.187 7.8195 0
950 1 75 11.728 0
951 1 75 10.38 0
952 1 75.812 7.8195 0
953 1 76.223 12.482 0
954 1 76.234 9.6921 0
955 1 76.407 8.4937 0
956 1 77.191 12.143 0
957 1 77.516 10.717 0
958 1 78.081 8.0573 0
959 1 78.331 6.623 0
960 1 78.71 10.25 0
961 1 78.973 8.9212 0
962 1 79.577 12.577 0
963 1 79.843 11.201 0
964 1 80.392 8.4785 0
965 1 80.66 7.0808 0
966 1 81.133 10.729 0
967 1 81.391 9.378 0
968 1 81.949 6.6319 0
969 1 82.216 11.658 0
970 1 82.749 8.9218 0
971 1 83.013 7.5428 0
972 1 83.524 11.197 0
973 1 83.787 9.8324 0
974 1 84.324 7.0879 0
975 1 84.589 12.116 0
976 1 85.119 9.3751 0
977 1 85.382 8.0008 0
978 1 85.907 11.657 0
979 1 86.17 10.288 0
980 1 86.7 7.5442 0
981 1 86.964 12.573 0
982 1 87.492 9.8302 0
983 1 87.756 8.4586 0
984 1 88.284 12.116 0
985 1 88.548 10.745 0
986 1 89.076 8.0014 0
987 1 89.34 6.6297 0
988 1 89.868 10.287 0
989 1 90.132 8.9158 0
990 1 90.66 12.573 0
991 1 90.924 11.202 0
992 1 91.452 8.4586 0
993 1 91.716 7.0869 0
994 1 92.244 10.745 0
995 1 92.508 9.373 0
996 1 93.036 6.6297 0
997 1 93.3 11.659 0
998 1 93.83 8.9149 0
999 1 94.093 7.5458 0
1000 1 94.618 11.202 0
1001 1 94.881 9.8281 0
1002 1 95.411 7.0869 0
1003 1 95.676 12.115 0
1004 1 96.213 9.3708 0
1005 1 96.476 8.0067 0
1006 1 96.987 11.66 0
1007 1 97.251 10.281 0
1008 1 97.784 7.5452 0
1009 1 98.051 12.571 0
1010 1 98.609 9.8252 0
1011 1 98.867 8.4744 0
1012 1 99.34 12.122 0
1013 1 99.608 10.725 0
1014 1 100.16 8.0018 0
1015 1 100.42 6.6263 0
1016 1 101.03 10.282 0
1017 1 101.29 8.9537 0
1018 1 101.67 12.58 0
1019 1 101.92 11.146 0
1020 1 102.48 8.4862 0
1021 1 102.81 7.06 0
1022 1 103.59 10.709 0
1023 1 103.77 9.5112 0
1024 1 103.78 6.7216 0
1025 1 104.19 11.384 0
1026 1 105 8.8233 0
1027 1 105 7.4755 0
1028 1 105.81 11.384 0
1029 1 106.22 6.7216 0
1030 1 106.23 9.5111 0
1031 1 106.41 10.709 0
1032 1 107.19 7.0599 0
1033 1 107.52 8.4862 0
1034 1 108.08 11.146 0
1035 1 108.33 12.58 0
1036 1 108.71 8.9537 0
1037 1 108.97 10.282 0
1038 1 109.58 6.6263 0
1039 1 109.84 8.0018 0
1040 1 110.39 10.725 0
1041 1 110.66 12.122 0
1042 1 111.13 8.4743 0
1043 1 111.39 9.8252 0
1044 1 111.95 12.571 0
1045 1 112.22 7.5453 0
1046 1 112.75 10.281 0
1047 1 113.01 11.66 0
1048 1 113.52 8.0066 0
1049 1 113.79 9.3708 0
1050 1 114.32 12.115 0
1051 1 114.59 7.0869 0
1052 1 115.12 9.828 0
1053 1 115.38 11.202 0
1054 1 115.91 7.5457 0
1055 1 116.17 8.9149 0
1056 1 116.7 11.659 0
1057 1 116.96 6.6297 0
1058 1 117.49 9.373 0
1059 1 117.76 10.745 0
1060 1 118.28 7.0869 0
1061 1 118.55 8.4586 0
1062 1 119.08 11.202 0
1063 1 119.34 12.573 0
1064 1 119.87 8.9158 0
1065 1 60.132 16.689 0
1066 1 60.66 13.031 0
1067 1 60.924 14.403 0
1068 1 61.452 17.146 0
1069 1 61.716 18.517 0
1070 1 62.244 14.86 0
1071 1 62.508 16.231 0
1072 1 63.036 18.975 0
1073 1 63.3 13.945 0
1074 1 63.83 16.689 0
1075 1 64.093 18.059 0
1076 1 64.618 14.402 0
1077 1 64.881 15.776 0
1078 1 65.41 18.517 0
1079 1 65.676 13.489 0
1080 1 66.213 16.234 0
1081 1 66.476 17.598 0
1082 1 66.986 13.944 0
1083 1 67.25 15.323 0
1084 1 67.783 18.059 0
1085 1 68.051 13.033 0
1086 1 68.608 15.779 0
1087 1 68.867 17.13 0
1088 1 69.339 13.482 0
1089 1 69.607 14.88 0
1090 1 70.157 17.602 0
1091 1 70.422 18.978 0
1092 1 71.027 15.322 0
1093 1 71.289 16.651 0
1094 1 71.669 13.024 0
1095 1 71.919 14.458 0
1096 1 72.483 17.118 0
1097 1 72.808 18.544 0
1098 1 73.593 14.895 0
1099 1 73.765 16.093 0
1100 1 73.776 18.883 0
1101 1 74.187 14.221 0
1102 1 75 18.129 0
1103 1 75 16.781 0
1104 1 75.812 14.221 0
1105 1 76.223 18.883 0
1106 1 76.234 16.093 0
1107 1 76.407 14.895 0
1108 1 77.191 18.544 0
1109 1 77.516 17.118 0
1110 1 78.081 14.458 0
1111 1 78.331 13.024 0
1112 1 78.71 16.651 0
1113 1 78.973 15.322 0
1114 1 79.577 18.978 0
1115 1 79.843 17.603 0
1116 1 80.392 14.88 0
1117 1 80.66 13.482 0
1118 1 81.133 17.13 0
1119 1 81.391 15.779 0
1120 1 81.949 13.033 0
1121 1 82.216 18.059 0
1122 1 82.749 15.323 0
1123 1 83.013 13.944 0
1124 1 83.524 17.598 0
1125 1 83.787 16.234 0
1126 1 84.324 13.489 0
1127 1 84.589 18.517 0
1128 1 85.119 15.776 0
1129 1 85.382 14.402 0
1130 1 85.907 18.059 0
1131 1 86.17 16.689 0
1132 1 86.7 13.945 0
1133 1 86.964 18.975 0
1134 1 87.492 16.231 0
1135 1 87.756 14.86 0
1136 1 88.284 18.517 0
1137 1 88.548 17.146 0
1138 1 89.076 14.403 0
1139 1 89.34 13.031 0
1140 1 89.868 16.689 0
1141 1 90.132 15.317 0
1142 1 90.66 18.975 0
1143 1 90.924 17.603 0
1144 1 91.452 14.86 0
1145 1 91.716 13.488 0
1146 1 92.244 17.146 0
1147 1 92.508 15.774 0
1148 1 93.036 13.031 0
1149 1 93.3 18.06 0
1150 1 93.83 15.316 0
1151 1 94.093 13.947 0
1152 1 94.618 17.603 0
1153 1 94.881 16.229 0
1154 1 95.411 13.488 0
1155 1 95.676 18.516 0
1156 1 96.213 15.772 0
1157 1 96.476 14.408 0
1158 1 96.987 18.062 0
1159 1 97.251 16.683 0
1160 1 97.784 13.946 0
1161 1 98.051 18.972 0
1162 1 98.609 16.226 0
1163 1 98.867 14.876 0
1164 1 99.34 18.524 0
1165 1 99.608 17.126 0
1166 1 100.16 14.403 0
1167 1 100.42 13.027 0
1168 1 101.03 16.683 0
1169 1 101.29 15.355 0
1170 1 101.67 18.981 0
1171 1 101.92 17.547 0
1172 1 102.48 14.887 0
1173 1 102.81 13.461 0
1174 1 103.59 17.111 0
1175 1 103.77 15.912 0
1176 1 103.78 13.123 0
1177 1 104.19 17.785 0
1178 1 105 15.224 0
1179 1 105 13.877 0
1180 1 105.81 17.785 0
1181 1 106.22 13.123 0
1182 1 106.23 15.912 0
1183 1 106.41 17.111 0
1184 1 107.19 13.461 0
1185 1 107.52 14.887 0
1186 1 108.08 17.547 0
1187 1 108.33 18.981 0
1188 1 108.71 15.355 0
1189 1 108.97 16.683 0
1190 1 109.58 13.027 0
1191 1 109.84 14.403 0
1192 1 110.39 17.126 0
1193 1 110.66 18.524 0
1194 1 111.13 14.875 0
1195 1 111.39 16.226 0
1196 1 111.95 18.972 0
1197 1 112.22 13.946 0
1198 1 112.75 16.682 0
1199 1 113.01 18.062 0
1200 1 113.52 14.408 0
1201 1 113.79 15.772 0
1202 1 114.32 18.516 0
1203 1 114.59 13.488 0
1204 1 115.12 16.229 0
1205 1 115.38 17.604 0
1206 1 115.91 13.947 0
1207 1 116.17 15.316 0
1208 1 116.7 18.06 0
1209 1 116.96 13.031 0
1210 1 117.49 15.774 0
1211 1 117.76 17.146 0
1212 1 118.28 13.488 0
1213 1 118.55 14.86 0
1214 1 119.08 17.603 0
1215 1 119.34 18.975 0
1216 1 119.87 15.317 0
1217 1 60.132 23.09 0
1218 1 60.66 19.432 0
1219 1 60.924 20.804 0
1220 1 61.452 23.547 0
1221 1 61.716 24.919 0
1222 1 62.244 21.261 0
1223 1 62.508 22.632 0
1224 1 63.036 25.376 0
1225 1 63.3 20.346 0
1226 1 63.83 23.091 0
1227 1 64.093 24.46 0
1228 1 64.618 20.803 0
1229 1 64.881 22.177 0
1230 1 65.41 24.919 0
1231 1 65.676 19.89 0
1232 1 66.213 22.635 0
1233 1 66.476 23.999 0
1234 1 66.986 20.345 0
1235 1 67.25 21.724 0
1236 1 67.783 24.46 0
1237 1 68.051 19.434 0
1238 1 68.608 22.18 0
1239 1 68.867 23.531 0
1240 1 69.339 19.883 0
1241 1 69.607 21.281 0
1242 1 70.157 24.004 0
1243 1 70.422 25.379 0
1244 1 71.027 21.723 0
1245 1 71.289 23.052 0
1246 1 71.669 19.425 0
1247 1 71.919 20.86 0
1248 1 72.483 23.519 0
1249 1 72.808 24.946 0
1250 1 73.593 21.296 0
1251 1 73.765 22.494 0
1252 1 73.776 25.284 0
1253 1 74.187 20.622 0
1254 1 75 24.53 0
1255 1 75 23.182 0
1256 1 75.812 20.622 0
1257 1 76.223 25.284 0
1258 1 76.234 22.494 0
1259 1 76.407 21.296 0
1260 1 77.191 24.946 0
1261 1 77.516 23.519 0
1262 1 78.081 20.86 0
1263 1 78.331 19.425 0
1264 1 78.71 23.052 0
1265 1 78.973 21.723 0
1266 1 79.577 25.379 0
1267 1 79.843 24.004 0
1268 1 80.392 21.281 0
1269 1 80.66 19.883 0
1270 1 81.133 23.531 0
1271 1 81.391 22.18 0
1272 1 81.949 19.434 0
1273 1 82.216 24.46 0
1274 1 82.749 21.724 0
1275 1 83.013 20.345 0
1276 1 83.524 23.999 0
1277 1 83.787 22.635 0
1278 1 84.324 19.89 0
1279 1 84.589 24.919 0
1280 1 85.119 22.177 0
1281 1 85.382 20.803 0
1282 1 85.907 24.46 0
1283 1 86.17 23.091 0
1284 1 86.7 20.346 0
1285 1 86.964 25.376 0
1286 1 87.492 22.632 0
1287 1 87.756 21.261 0
1288 1 88.284 24.919 0
1289 1 88.548 23.547 0
1290 1 89.076 20.804 0
1291 1 89.34 19.432 0
1292 1 89.868 23.09 0
1293 1 90.132 21.718 0
1294 1 90.66 25.376 0
1295 1 90.924 24.004 0
1296 1 91.452 21.261 0
1297 1 91.716 19.889 0
1298 1 92.244 23.547 0
1299 1 92.508 22.175 0
1300 1 93.036 19.432 0
1301 1 93.3 24.461 0
1302 1 93.83 21.717 0
1303 1 94.093 20.348 0
1304 1 94.618 24.005 0
1305 1 94.881 22.63 0
1306 1 95.411 19.889 0
1307 1 95.676 24.918 0
1308 1 96.213 22.173 0
1309 1 96.476 20.809 0
1310 1 96.987 24.463 0
1311 1 97.251 23.084 0
1312 1 97.784 20.348 0
1313 1 98.051 25.374 0
1314 1 98.609 22.627 0
1315 1 98.867 21.277 0
1316 1 99.34 24.925 0
1317 1 99.608 23.527 0
1318 1 100.16 20.804 0
1319 1 100.42 19.429 0
1320 1 101.03 23.084 0
1321 1 101.29 21.756 0
1322 1 101.67 25.382 0
1323 1 101.92 23.948 0
1324 1 102.48 21.288 0
1325 1 102.81 19.862 0
1326 1 103.59 23.512 0
1327 1 103.77 22.313 0
1328 1 103.78 19.524 0
1329 1 104.19 24.186 0
1330 1 105 21.626 0
1331 1 105 20.278 0
1332 1 105.81 24.186 0
1333 1 106.22 19.524 0
1334 1 106.23 22.313 0
1335 1 106.41 23.512 0
1336 1 107.19 19.862 0
1337 1 107.52 21.288 0
1338 1 108.08 23.948 0
1339 1 108.33 25.382 0
1340 1 108.71 21.756 0
1341 1 108.97 23.084 0
1342 1 109.58 19.429 0
1343 1 109.84 20.804 0
1344 1 110.39 23.527 0
1345 1 110.66 24.925 0
1346 1 111.13 21.277 0
1347 1 111.39 22.627 0
1348 1 111.95 25.374 0
1349 1 112.22 20.348 0
1350 1 112.75 23.084 0
1351 1 113.01 24.463 0
1352 1 113.52 20.809 0
1353 1 113.79 22.173 0
1354 1 114.32 24.917 0
1355 1 114.59 19.889 0
1356 1 115.12 22.63 0
1357 1 115.38 24.005 0
1358 1 115.91 20.348 0
1359 1 116.17 21.717 0
1360 1 116.7 24.461 0
1361 1 116.96 19.432 0