#
152	 atoms
 1	 atom types


 0.000000 60.000000	 xlo xhi
 0.000000 6.401133	 ylo yhi
 0.000000 3.340000	 zlo zhi
 0.000000 0.000000 0.000000	 xy xz yz


Masses

 1 12.010000

Atoms

1 1 0.13199 3.8863 0
2 1 0.65993 0.22861 0
3 1 0.9239 1.6002 0
4 1 1.4518 4.3435 0
5 1 1.7158 5.7151 0
6 1 2.2437 2.0574 0
7 1 2.5077 3.4291 0
8 1 3.0357 6.1723 0
9 1 3.2996 1.143 0
10 1 3.8301 3.8872 0
11 1 4.0933 5.2564 0
12 1 4.6178 1.5997 0
13 1 4.8814 2.9741 0
14 1 5.4105 5.7151 0
15 1 5.6756 0.68686 0
16 1 6.213 3.4312 0
17 1 6.4756 4.7954 0
18 1 6.9864 1.1416 0
19 1 7.2504 2.5208 0
20 1 7.7832 5.2568 0
21 1 8.0507 0.23079 0
22 1 8.6084 2.9769 0
23 1 8.8665 4.3277 0
24 1 9.3393 0.67959 0
25 1 9.6075 2.0774 0
26 1 10.157 4.8002 0
27 1 10.422 6.1758 0
28 1 11.027 2.52 0
29 1 11.289 3.8484 0
30 1 11.669 0.22188 0
31 1 11.919 1.6562 0
32 1 12.483 4.3159 0
33 1 12.808 5.7421 0
34 1 13.593 2.0926 0
35 1 13.765 3.2909 0
36 1 13.776 6.0805 0
37 1 14.187 1.4184 0
38 1 15 5.3266 0
39 1 15 3.9787 0
40 1 15.812 1.4183 0
41 1 16.223 6.0805 0
42 1 16.234 3.2909 0
43 1 16.407 2.0926 0
44 1 17.191 5.7421 0
45 1 17.516 4.3159 0
46 1 18.081 1.6562 0
47 1 18.331 0.2219 0
48 1 18.71 3.8484 0
49 1 18.973 2.52 0
50 1 19.577 6.1757 0
51 1 19.843 4.8003 0
52 1 20.392 2.0773 0
53 1 20.66 0.67962 0
54 1 21.133 4.3277 0
55 1 21.391 2.9769 0
56 1 21.949 0.23072 0
57 1 22.216 5.2568 0
58 1 22.749 2.5207 0
59 1 23.013 1.1416 0
60 1 23.524 4.7954 0
61 1 23.787 3.4313 0
62 1 24.324 0.68677 0
63 1 24.589 5.7152 0
64 1 25.119 2.974 0
65 1 25.382 1.5997 0
66 1 25.907 5.2563 0
67 1 26.17 3.8872 0
68 1 26.7 1.143 0
69 1 26.964 6.1723 0
70 1 27.492 3.4291 0
71 1 27.756 2.0574 0
72 1 28.284 5.7151 0
73 1 28.548 4.3435 0
74 1 29.076 1.6002 0
75 1 29.34 0.22861 0
76 1 29.868 3.8863 0
77 1 30.132 2.5147 0
78 1 30.66 6.1723 0
79 1 30.924 4.8007 0
80 1 31.452 2.0574 0
81 1 31.716 0.68582 0
82 1 32.244 4.3435 0
83 1 32.508 2.9719 0
84 1 33.036 0.22861 0
85 1 33.3 5.2579 0
86 1 33.83 2.5137 0
87 1 34.093 1.1446 0
88 1 34.618 4.8012 0
89 1 34.881 3.4269 0
90 1 35.411 0.68572 0
91 1 35.676 5.7142 0
92 1 36.213 2.9697 0
93 1 36.476 1.6056 0
94 1 36.987 5.2593 0
95 1 37.251 3.8803 0
96 1 37.784 1.1441 0
97 1 38.051 6.1702 0
98 1 38.609 3.424 0
99 1 38.867 2.0733 0
100 1 39.34 5.7213 0
101 1 39.608 4.3236 0
102 1 40.157 1.6007 0
103 1 40.423 0.2252 0
104 1 41.027 3.8809 0
105 1 41.29 2.5526 0
106 1 41.669 6.179 0
107 1 41.919 4.7448 0
108 1 42.484 2.0851 0
109 1 42.809 0.65882 0
110 1 43.593 4.3083 0
111 1 43.766 3.11 0
112 1 43.777 0.32042 0
113 1 44.188 4.9826 0
114 1 45 2.4222 0
115 1 45 1.0743 0
116 1 45.813 4.9826 0
117 1 46.224 0.32043 0
118 1 46.235 3.11 0
119 1 46.407 4.3084 0
120 1 47.192 0.6588 0
121 1 47.517 2.0851 0
122 1 48.081 4.7448 0
123 1 48.331 6.1791 0
124 1 48.711 2.5525 0
125 1 48.973 3.8809 0
126 1 49.578 0.22515 0
127 1 49.843 1.6007 0
128 1 50.393 4.3236 0
129 1 50.661 5.7214 0
130 1 51.133 2.0732 0
131 1 51.392 3.4241 0
132 1 51.949 6.1702 0
133 1 52.217 1.1442 0
134 1 52.75 3.8802 0
135 1 53.014 5.2593 0
136 1 53.524 1.6055 0
137 1 53.787 2.9697 0
138 1 54.324 5.7141 0
139 1 54.59 0.6858 0
140 1 55.119 3.4269 0
141 1 55.382 4.8013 0
142 1 55.907 1.1445 0
143 1 56.17 2.5138 0
144 1 56.7 5.2579 0
145 1 56.964 0.22861 0
146 1 57.492 2.9719 0
147 1 57.756 4.3435 0
148 1 58.284 0.68582 0
149 1 58.548 2.0574 0
150 1 59.076 4.8007 0
151 1 59.34 6.1723 0
152 1 59.868 2.5147 0
