LAMMPS (5 Jun 2019)
clear
units metal
dimension 3
boundary p p p		# not periodic unlike SLG
atom_style atomic

variable        dt              equal 0.0005                    # timestep = 0.2 fs
timestep        ${dt}
timestep        0.0005

neighbor 2.0 nsq

read_data	lmp_metal_min.in.x0.1 #min.lammps
  triclinic box = (0 0 0) to (60 6.40113 3.34) with tilt (0 0 0)
  1 by 1 by 1 MPI processor grid
  reading atoms ...
  152 atoms
  read_data CPU = 0.00075631 secs
mass 1 12.01

# Choose the appropriate potential
pair_style airebo 3.0 0 0
pair_coeff * * CH.airebo C
Reading potential file CH.airebo with DATE: 2011-10-25
#pair_style      tersoff
#pair_coeff      * * SiC_optimized.tersoff C
########################## Stage 0: Energy minimisation  #############################################################################

# Compute and print desired thermodynamic information
dump 1 all      custom 10000 dump_min_AIREBO.lammpstrj id type x  y  z			# energy minimisation
#dump_modify    1 sort id  format "%d %d %10.6f  %10.6f  %g %g %g %g"
dump_modify     1 sort id

thermo_style    custom step pe ke temp pxx pyy pxy pzz xlo xhi ylo yhi fmax fnorm

thermo 1000

#fix 1 all box/relax x 0.0 y 0.0 xy 0.0
min_style       cg
minimize        0 1e-9 100000 100000
WARNING: Using 'neigh_modify every 1 delay 0 check yes' setting during minimization (../min.cpp:168)
Neighbor list info ...
  update every 1 steps, delay 0 steps, check yes
  max neighbors/atom: 2000, page size: 100000
  master list distance cutoff = 8
  ghost atom cutoff = 8
  1 neighbor lists, perpetual/occasional/extra = 1 0 0
  (1) pair airebo, perpetual
      attributes: full, newton on, ghost
      pair build: full/nsq/ghost
      stencil: none
      bin: none
Per MPI rank memory allocation (min/avg/max) = 6.615 | 6.615 | 6.615 Mbytes
Step PotEng KinEng Temp Pxx Pyy Pxy Pzz Xlo Xhi Ylo Yhi Fmax Fnorm 
       0    -994.0291            0            0    946007.18    1864936.4   -1610.5075            0            0           60            0     6.401133    287.96177    886.42726 
     210   -1180.7824            0            0    63673.107    45983.118 2.2817004e-08            0            0           60            0     6.401133 1.4042506e-10 9.1065245e-10 
Loop time of 0.524796 on 1 procs for 210 steps with 152 atoms

100.0% CPU use with 1 MPI tasks x no OpenMP threads

Minimization stats:
  Stopping criterion = force tolerance
  Energy initial, next-to-last, final = 
        -994.029102311     -1180.78244147     -1180.78244147
  Force two-norm initial, final = 886.427 9.10652e-10
  Force max component initial, final = 287.962 1.40425e-10
  Final line search alpha, max atom move = 1 1.40425e-10
  Iterations, force evaluations = 210 417

MPI task timing breakdown:
Section |  min time  |  avg time  |  max time  |%varavg| %total
---------------------------------------------------------------
Pair    | 0.51155    | 0.51155    | 0.51155    |   0.0 | 97.48
Neigh   | 0          | 0          | 0          |   0.0 |  0.00
Comm    | 0.0094729  | 0.0094729  | 0.0094729  |   0.0 |  1.81
Output  | 0          | 0          | 0          |   0.0 |  0.00
Modify  | 0          | 0          | 0          |   0.0 |  0.00
Other   |            | 0.003773   |            |       |  0.72

Nlocal:    152 ave 152 max 152 min
Histogram: 1 0 0 0 0 0 0 0 0 0
Nghost:    3808 ave 3808 max 3808 min
Histogram: 1 0 0 0 0 0 0 0 0 0
Neighs:    0 ave 0 max 0 min
Histogram: 1 0 0 0 0 0 0 0 0 0
FullNghs:  39532 ave 39532 max 39532 min
Histogram: 1 0 0 0 0 0 0 0 0 0

Total # of neighbors = 39532
Ave neighs/atom = 260.079
Neighbor list builds = 0
Dangerous builds = 0
#minimize        0 0.5 10 10

#unfix freeze
#unfix relax
#unfix 1
undump 1

#write_data      min2.lammps
Total wall time: 0:00:00
