********************************************************************************
*                       GENERAL UTILITY LATTICE PROGRAM                        *
*                                 Julian Gale                                  *
*                       Curtin Institute for Computation                       *
*                    School of Molecular and Life Sciences                     *
*                    Curtin University, Western Australia                      *
********************************************************************************
* Version = 6.2.0 * Last modified =  19th December 2023                        *
********************************************************************************
*  single       - perform a single point run                                   *
*  numerical    - calculate properties using numerical second derivatives      *
*  phonon       - calculate phonons for final geometry                         *
*  groupvelocity- group velocities to be computed at k points                  *
********************************************************************************

  Job Started  at 18:06.33  1st July       2024                               

  Number of CPUs =     1

  Host name      = diamat.me.iitb.ac.in                    


  Total number of configurations input =      1

********************************************************************************
*  Input for Configuration =   1 : graphene                                    *
********************************************************************************

  Formula = C152                                                        

  Number of irreducible atoms/shells =     152


  Total number atoms/shells =     152

  Dimensionality = 3               :  Bulk   



  Cartesian lattice vectors (Angstroms) :

       60.000000    0.000000    0.000000
        0.000000    6.401133    0.000000
        0.000000    0.000000    3.340000

  Cell parameters (Angstroms/Degrees):

  a =      60.0000    alpha =  90.0000
  b =       6.4011    beta  =  90.0000
  c =       3.3400    gamma =  90.0000

  Initial cell volume =        1282.787053 Angs**3

  Temperature of configuration =   0.00     K 

  Pressure of configuration =         0.000 GPa 

  Fractional coordinates of asymmetric unit :

--------------------------------------------------------------------------------
   No.  Atomic       x           y          z         Charge      Occupancy
        Label      (Frac)      (Frac)     (Frac)        (e)         (Frac)  
--------------------------------------------------------------------------------
      1 C     c    0.002178    0.606922    0.000000     0.00000    1.000000    
      2 C     c    0.010954    0.035859    0.000000     0.00000    1.000000    
      3 C     c    0.015290    0.249770    0.000000     0.00000    1.000000    
      4 C     c    0.024084    0.678686    0.000000     0.00000    1.000000    
      5 C     c    0.028426    0.892584    0.000000     0.00000    1.000000    
      6 C     c    0.037192    0.321559    0.000000     0.00000    1.000000    
      7 C     c    0.041555    0.535422    0.000000     0.00000    1.000000    
      8 C     c    0.050335    0.964321    0.000000     0.00000    1.000000    
      9 C     c    0.054655    0.178264    0.000000     0.00000    1.000000    
     10 C     c    0.063465    0.607164    0.000000     0.00000    1.000000    
     11 C     c    0.067811    0.821048    0.000000     0.00000    1.000000    
     12 C     c    0.076549    0.250114    0.000000     0.00000    1.000000    
     13 C     c    0.080942    0.463927    0.000000     0.00000    1.000000    
     14 C     c    0.089725    0.892742    0.000000     0.00000    1.000000    
     15 C     c    0.093996    0.106780    0.000000     0.00000    1.000000    
     16 C     c    0.102857    0.535632    0.000000     0.00000    1.000000    
     17 C     c    0.107216    0.749478    0.000000     0.00000    1.000000    
     18 C     c    0.115868    0.178803    0.000000     0.00000    1.000000    
     19 C     c    0.120348    0.392474    0.000000     0.00000    1.000000    
     20 C     c    0.129147    0.821062    0.000000     0.00000    1.000000    
     21 C     c    0.133275    0.035391    0.000000     0.00000    1.000000    
     22 C     c    0.142280    0.464094    0.000000     0.00000    1.000000    
     23 C     c    0.146680    0.677777    0.000000     0.00000    1.000000    
     24 C     c    0.155079    0.107989    0.000000     0.00000    1.000000    
     25 C     c    0.159806    0.321196    0.000000     0.00000    1.000000    
     26 C     c    0.168665    0.749108    0.000000     0.00000    1.000000    
     27 C     c    0.172368    0.964468    0.000000     0.00000    1.000000    
     28 C     c    0.181777    0.392729    0.000000     0.00000    1.000000    
     29 C     c    0.186328    0.605191    0.000000     0.00000    1.000000    
     30 C     c    0.194020    0.038101    0.000000     0.00000    1.000000    
     31 C     c    0.199467    0.251716    0.000000     0.00000    1.000000    
     32 C     c    0.208407    0.676263    0.000000     0.00000    1.000000    
     33 C     c    0.210785    0.891395    0.000000     0.00000    1.000000    
     34 C     c    0.221705    0.325942    0.000000     0.00000    1.000000    
     35 C     c    0.227303    0.538053    0.000000     0.00000    1.000000    
     36 C     c    0.231602    0.967665    0.000000     0.00000    1.000000    
     37 C     c    0.238280    0.178684    0.000000     0.00000    1.000000    
     38 C     c    0.250000    0.837589    0.000000     0.00000    1.000000    
     39 C     c    0.250000    0.620290    0.000000     0.00000    1.000000    
     40 C     c    0.261720    0.178684    0.000000     0.00000    1.000000    
     41 C     c    0.268398    0.967665    0.000000     0.00000    1.000000    
     42 C     c    0.272697    0.538053    0.000000     0.00000    1.000000    
     43 C     c    0.278295    0.325942    0.000000     0.00000    1.000000    
     44 C     c    0.289215    0.891395    0.000000     0.00000    1.000000    
     45 C     c    0.291593    0.676263    0.000000     0.00000    1.000000    
     46 C     c    0.300533    0.251716    0.000000     0.00000    1.000000    
     47 C     c    0.305980    0.038101    0.000000     0.00000    1.000000    
     48 C     c    0.313672    0.605191    0.000000     0.00000    1.000000    
     49 C     c    0.318223    0.392729    0.000000     0.00000    1.000000    
     50 C     c    0.327632    0.964468    0.000000     0.00000    1.000000    
     51 C     c    0.331335    0.749108    0.000000     0.00000    1.000000    
     52 C     c    0.340193    0.321196    0.000000     0.00000    1.000000    
     53 C     c    0.344922    0.107989    0.000000     0.00000    1.000000    
     54 C     c    0.353320    0.677777    0.000000     0.00000    1.000000    
     55 C     c    0.357720    0.464094    0.000000     0.00000    1.000000    
     56 C     c    0.366725    0.035391    0.000000     0.00000    1.000000    
     57 C     c    0.370853    0.821062    0.000000     0.00000    1.000000    
     58 C     c    0.379652    0.392474    0.000000     0.00000    1.000000    
     59 C     c    0.384132    0.178803    0.000000     0.00000    1.000000    
     60 C     c    0.392785    0.749478    0.000000     0.00000    1.000000    
     61 C     c    0.397143    0.535632    0.000000     0.00000    1.000000    
     62 C     c    0.406003    0.106780    0.000000     0.00000    1.000000    
     63 C     c    0.410275    0.892742    0.000000     0.00000    1.000000    
     64 C     c    0.419058    0.463927    0.000000     0.00000    1.000000    
     65 C     c    0.423450    0.250114    0.000000     0.00000    1.000000    
     66 C     c    0.432188    0.821048    0.000000     0.00000    1.000000    
     67 C     c    0.436535    0.607164    0.000000     0.00000    1.000000    
     68 C     c    0.445345    0.178264    0.000000     0.00000    1.000000    
     69 C     c    0.449665    0.964321    0.000000     0.00000    1.000000    
     70 C     c    0.458445    0.535422    0.000000     0.00000    1.000000    
     71 C     c    0.462808    0.321559    0.000000     0.00000    1.000000    
     72 C     c    0.471573    0.892584    0.000000     0.00000    1.000000    
     73 C     c    0.475917    0.678686    0.000000     0.00000    1.000000    
     74 C     c    0.484710    0.249770    0.000000     0.00000    1.000000    
     75 C     c    0.489047    0.035859    0.000000     0.00000    1.000000    
     76 C     c    0.497822    0.606922    0.000000     0.00000    1.000000    
     77 C     c    0.502178    0.393048    0.000000     0.00000    1.000000    
     78 C     c    0.510953    0.964111    0.000000     0.00000    1.000000    
     79 C     c    0.515290    0.750200    0.000000     0.00000    1.000000    
     80 C     c    0.524083    0.321282    0.000000     0.00000    1.000000    
     81 C     c    0.528427    0.107386    0.000000     0.00000    1.000000    
     82 C     c    0.537192    0.678411    0.000000     0.00000    1.000000    
     83 C     c    0.541555    0.464547    0.000000     0.00000    1.000000    
     84 C     c    0.550335    0.035648    0.000000     0.00000    1.000000    
     85 C     c    0.554655    0.821706    0.000000     0.00000    1.000000    
     86 C     c    0.563465    0.392805    0.000000     0.00000    1.000000    
     87 C     c    0.567812    0.178921    0.000000     0.00000    1.000000    
     88 C     c    0.576550    0.749856    0.000000     0.00000    1.000000    
     89 C     c    0.580942    0.536043    0.000000     0.00000    1.000000    
     90 C     c    0.589725    0.107226    0.000000     0.00000    1.000000    
     91 C     c    0.593997    0.893190    0.000000     0.00000    1.000000    
     92 C     c    0.602857    0.464338    0.000000     0.00000    1.000000    
     93 C     c    0.607215    0.250492    0.000000     0.00000    1.000000    
     94 C     c    0.615868    0.821167    0.000000     0.00000    1.000000    
     95 C     c    0.620348    0.607496    0.000000     0.00000    1.000000    
     96 C     c    0.629147    0.178907    0.000000     0.00000    1.000000    
     97 C     c    0.633275    0.964579    0.000000     0.00000    1.000000    
     98 C     c    0.642280    0.535874    0.000000     0.00000    1.000000    
     99 C     c    0.646680    0.322193    0.000000     0.00000    1.000000    
    100 C     c    0.655078    0.891981    0.000000     0.00000    1.000000    
    101 C     c    0.659807    0.678774    0.000000     0.00000    1.000000    
    102 C     c    0.668665    0.250862    0.000000     0.00000    1.000000    
    103 C     c    0.672368    0.035500    0.000000     0.00000    1.000000    
    104 C     c    0.681777    0.607241    0.000000     0.00000    1.000000    
    105 C     c    0.686328    0.394779    0.000000     0.00000    1.000000    
    106 C     c    0.694020    0.961869    0.000000     0.00000    1.000000    
    107 C     c    0.699467    0.748253    0.000000     0.00000    1.000000    
    108 C     c    0.708407    0.323707    0.000000     0.00000    1.000000    
    109 C     c    0.710785    0.108575    0.000000     0.00000    1.000000    
    110 C     c    0.721705    0.674028    0.000000     0.00000    1.000000    
    111 C     c    0.727303    0.461917    0.000000     0.00000    1.000000    
    112 C     c    0.731602    0.032305    0.000000     0.00000    1.000000    
    113 C     c    0.738280    0.821286    0.000000     0.00000    1.000000    
    114 C     c    0.750000    0.379680    0.000000     0.00000    1.000000    
    115 C     c    0.750000    0.162379    0.000000     0.00000    1.000000    
    116 C     c    0.761720    0.821286    0.000000     0.00000    1.000000    
    117 C     c    0.768398    0.032305    0.000000     0.00000    1.000000    
    118 C     c    0.772697    0.461917    0.000000     0.00000    1.000000    
    119 C     c    0.778295    0.674028    0.000000     0.00000    1.000000    
    120 C     c    0.789215    0.108575    0.000000     0.00000    1.000000    
    121 C     c    0.791593    0.323707    0.000000     0.00000    1.000000    
    122 C     c    0.800533    0.748253    0.000000     0.00000    1.000000    
    123 C     c    0.805980    0.961869    0.000000     0.00000    1.000000    
    124 C     c    0.813672    0.394779    0.000000     0.00000    1.000000    
    125 C     c    0.818223    0.607241    0.000000     0.00000    1.000000    
    126 C     c    0.827632    0.035500    0.000000     0.00000    1.000000    
    127 C     c    0.831335    0.250862    0.000000     0.00000    1.000000    
    128 C     c    0.840193    0.678774    0.000000     0.00000    1.000000    
    129 C     c    0.844922    0.891981    0.000000     0.00000    1.000000    
    130 C     c    0.853320    0.322193    0.000000     0.00000    1.000000    
    131 C     c    0.857720    0.535874    0.000000     0.00000    1.000000    
    132 C     c    0.866725    0.964579    0.000000     0.00000    1.000000    
    133 C     c    0.870853    0.178907    0.000000     0.00000    1.000000    
    134 C     c    0.879652    0.607496    0.000000     0.00000    1.000000    
    135 C     c    0.884132    0.821167    0.000000     0.00000    1.000000    
    136 C     c    0.892785    0.250492    0.000000     0.00000    1.000000    
    137 C     c    0.897143    0.464338    0.000000     0.00000    1.000000    
    138 C     c    0.906003    0.893190    0.000000     0.00000    1.000000    
    139 C     c    0.910275    0.107226    0.000000     0.00000    1.000000    
    140 C     c    0.919058    0.536043    0.000000     0.00000    1.000000    
    141 C     c    0.923450    0.749856    0.000000     0.00000    1.000000    
    142 C     c    0.932188    0.178921    0.000000     0.00000    1.000000    
    143 C     c    0.936535    0.392805    0.000000     0.00000    1.000000    
    144 C     c    0.945345    0.821706    0.000000     0.00000    1.000000    
    145 C     c    0.949665    0.035648    0.000000     0.00000    1.000000    
    146 C     c    0.958445    0.464547    0.000000     0.00000    1.000000    
    147 C     c    0.962808    0.678411    0.000000     0.00000    1.000000    
    148 C     c    0.971573    0.107386    0.000000     0.00000    1.000000    
    149 C     c    0.975917    0.321282    0.000000     0.00000    1.000000    
    150 C     c    0.984710    0.750200    0.000000     0.00000    1.000000    
    151 C     c    0.989047    0.964111    0.000000     0.00000    1.000000    
    152 C     c    0.997822    0.393048    0.000000     0.00000    1.000000    
--------------------------------------------------------------------------------


  Brillouin zone sampling points :

--------------------------------------------------------------------------------
  Point number          x          y          z            Weight
--------------------------------------------------------------------------------
        1           0.000000   0.000000   0.000000     0.05000000
        2           0.026316   0.000000   0.000000     0.05000000
        3           0.052632   0.000000   0.000000     0.05000000
        4           0.078947   0.000000   0.000000     0.05000000
        5           0.105263   0.000000   0.000000     0.05000000
        6           0.131579   0.000000   0.000000     0.05000000
        7           0.157895   0.000000   0.000000     0.05000000
        8           0.184211   0.000000   0.000000     0.05000000
        9           0.210526   0.000000   0.000000     0.05000000
       10           0.236842   0.000000   0.000000     0.05000000
       11           0.263158   0.000000   0.000000     0.05000000
       12           0.289474   0.000000   0.000000     0.05000000
       13           0.315789   0.000000   0.000000     0.05000000
       14           0.342105   0.000000   0.000000     0.05000000
       15           0.368421   0.000000   0.000000     0.05000000
       16           0.394737   0.000000   0.000000     0.05000000
       17           0.421053   0.000000   0.000000     0.05000000
       18           0.447368   0.000000   0.000000     0.05000000
       19           0.473684   0.000000   0.000000     0.05000000
       20           0.500000   0.000000   0.000000     0.05000000
--------------------------------------------------------------------------------


********************************************************************************
*  General input information                                                   *
********************************************************************************

  Species output for all configurations : 

--------------------------------------------------------------------------------
  Species    Type    Atomic    Atomic    Charge       Radii (Angs)     Library
                     Number     Mass       (e)     Cova   Ionic  VDW   Symbol
--------------------------------------------------------------------------------
    C        Core        6      12.01   0.000000   0.770  0.000  1.530          
--------------------------------------------------------------------------------


  Lattice summation method               =    Ewald          (3-D)
                                         =    Parry          (2-D)
                                         =    Saunders et al (1-D)
  Accuracy factor for lattice sums       =   12.000


  Analytic derivatives to be used

  Time limit = Infinity

  Maximum range for interatomic potentials =    100000.000000 Angstroms

  Brenner et al 2002 potential to be used with explicit splines for P


********************************************************************************
*  Output for configuration   1 : graphene                                     *
********************************************************************************


  Components of energy : 

--------------------------------------------------------------------------------
  Interatomic potentials     =           0.00000000 eV    
  Brenner potentials         =       -1114.58973476 eV    
  Monopole - monopole (real) =           0.00000000 eV    
  Monopole - monopole (recip)=           0.00000000 eV    
  Monopole - monopole (total)=           0.00000000 eV    
--------------------------------------------------------------------------------
  Total lattice energy       =       -1114.58973476 eV    
--------------------------------------------------------------------------------
  Total lattice energy       =         -107540.8713 kJ/(mole unit cells)
--------------------------------------------------------------------------------


  Elastic Constant Matrix: (Units=GPa)

-------------------------------------------------------------------------------
  Indices      1         2         3         4         5         6    
-------------------------------------------------------------------------------
       1   1069.3070  380.6499    0.0000   -0.0000    0.0000   -0.0083
       2    380.6499 1065.6003    0.0000    0.0000    0.0000    0.0054
       3      0.0000    0.0000    0.0000    0.0000    0.0000    0.0000
       4     -0.0000    0.0000    0.0000  -13.2552    0.0006    0.0000
       5      0.0000    0.0000    0.0000    0.0006  -14.0513   -0.0000
       6     -0.0083    0.0054    0.0000    0.0000   -0.0000  306.6171
-------------------------------------------------------------------------------

  Mechanical properties :

-------------------------------------------------------------------------------
  Convention :                    Reuss         Voigt         Hill
-------------------------------------------------------------------------------
  Bulk  Modulus (GPa)     =       0.00000     321.80079     160.90039
  Shear Modulus (GPa)     =       0.00000     172.81260      86.40630
-------------------------------------------------------------------------------
  Velocity S-wave (km/s)  =       0.00000       8.55153       6.04684
  Velocity P-wave (km/s)  =       0.00000      15.28661      10.80926
-------------------------------------------------------------------------------
-------------------------------------------------------------------------------
  Stress axis :                     x             y             z
-------------------------------------------------------------------------------
  Youngs Moduli (GPa)     =    1069.30703     930.09730       0.00000
-------------------------------------------------------------------------------
  Poissons Ratio (x)      =               -354041.41638      -0.00000
  Poissons Ratio (y)      = -407031.58238                    -0.00000
  Poissons Ratio (z)      =      -0.00000      -0.00000
-------------------------------------------------------------------------------


  Piezoelectric Strain Matrix: (Units=C/m**2)

-------------------------------------------------------------------------------
  Indices      1         2         3         4         5         6    
-------------------------------------------------------------------------------
       x    -0.00000  -0.00000  -0.00000  -0.00000  -0.00000  -0.00000
       y    -0.00000  -0.00000  -0.00000  -0.00000  -0.00000  -0.00000
       z    -0.00000  -0.00000  -0.00000  -0.00000  -0.00000  -0.00000
-------------------------------------------------------------------------------


  Static dielectric constant tensor : 

-------------------------------------------------------------------------------
              x         y         z
-------------------------------------------------------------------------------
       x     1.00000   0.00000   0.00000
       y     0.00000   1.00000   0.00000
       z     0.00000   0.00000   1.00000
--------------------------------------------------------------------------------

  Static refractive indices : 

-------------------------------------------------------------------------------
    1 =    1.00000      2 =    1.00000      3 =    1.00000
-------------------------------------------------------------------------------


  Phonon Calculation : 

  K direction for n-a correction at gamma =  1.00000  1.00000  1.00000
              or the direction of phonon dispersion

  Number of k points for this configuration =       20

--------------------------------------------------------------------------------
  K point      1 =   0.000000  0.000000  0.000000  Weight =    0.050
--------------------------------------------------------------------------------

  Frequencies (cm-1) : 

  -86.63  -86.40  -59.42  -59.38  -50.04  -49.86  -49.52  -41.24  -35.87
  -35.81  -19.13  -18.84   -0.04   -0.01    0.02   24.97   49.36   60.38
   66.43   84.66   98.34  118.45  120.49  124.30  130.11  131.45  142.89
  171.24  177.64  181.73  185.69  189.14  191.31  191.70  191.70  192.28
  192.41  197.42  199.63  200.04  200.86  208.25  209.43  209.70  211.04
  220.44  223.68  227.11  228.03  228.92  231.22  237.24  238.94  239.88
  243.19  249.85  253.65  255.46  256.12  260.98  262.00  263.31  266.08
  279.80  286.05  288.36  291.46  293.30  293.65  310.94  314.60  317.38
  319.10  319.46  322.33  322.96  323.55  336.46  340.49  345.39  348.95
  349.33  351.58  353.52  353.68  360.91  366.05  367.49  375.15  380.58
  382.17  383.76  383.88  383.93  390.66  394.08  441.71  441.73  464.91
  465.60  480.54  480.97  482.05  484.29  497.81  503.46  520.55  524.15
  528.40  534.61  549.47  558.01  562.75  565.51  570.96  571.19  571.39
  577.12  578.57  580.53  580.89  588.40  594.99  597.30  598.32  598.42
  601.39  601.95  603.54  606.09  611.70  612.16  612.31  618.79  621.93
  625.03  625.17  625.24  626.58  629.32  632.10  633.46  635.11  635.91
  637.66  639.16  644.21  644.63  645.36  647.29  650.33  655.47  657.59
  660.64  662.65  664.99  669.21  670.97  672.50  676.17  677.23  677.70
  680.19  680.91  681.19  684.96  688.71  690.92  692.49  692.93  701.36
  702.76  706.19  707.23  714.56  716.61  717.31  719.08  723.62  723.90
  724.73  725.27  728.98  732.02  739.56  742.09  742.09  742.95  752.83
  754.08  755.20  756.40  756.47  756.94  757.01  757.39  760.17  762.95
  763.65  766.39  767.70  768.07  768.63  769.14  773.15  774.22  778.39
  788.47  788.51  788.70  789.91  794.24  794.92  796.61  801.25  801.38
  808.37  828.81  829.82  832.26  846.76  846.98  848.50  852.37  861.34
  861.41  868.37  879.65  888.18  889.79  907.08  912.25  914.79  923.32
  925.49  933.21  936.01  950.52  953.04  963.49  964.62  965.11  971.91
  974.73  975.36  982.26  982.39  985.12  986.70  987.44  987.69 1003.12
 1004.67 1008.54 1010.09 1023.53 1029.05 1029.19 1031.17 1039.06 1041.00
 1047.77 1049.31 1056.27 1065.81 1070.82 1071.35 1077.88 1089.12 1090.29
 1099.96 1102.49 1102.62 1110.07 1112.49 1114.94 1128.44 1130.74 1134.46
 1136.62 1161.91 1167.15 1168.65 1168.83 1177.27 1178.98 1197.50 1207.08
 1219.48 1219.86 1225.97 1226.21 1232.17 1242.22 1246.96 1259.16 1270.89
 1280.80 1294.21 1297.55 1326.12 1328.98 1348.50 1349.54 1412.07 1416.28
 1433.17 1435.91 1470.66 1474.63 1482.61 1483.27 1503.85 1513.29 1516.77
 1524.83 1534.51 1538.35 1545.88 1551.98 1553.70 1555.99 1558.58 1569.83
 1572.12 1577.30 1585.89 1594.16 1596.35 1598.31 1598.95 1605.20 1612.82
 1621.41 1627.71 1630.65 1633.51 1634.26 1636.12 1648.79 1656.03 1657.63
 1658.05 1660.23 1661.13 1674.35 1678.26 1678.91 1684.11 1684.47 1689.99
 1691.40 1697.37 1702.08 1704.89 1705.46 1707.24 1714.22 1715.55 1716.76
 1721.65 1733.16 1749.32 1751.33 1754.28 1754.30 1774.55 1779.34 1789.54
 1798.84 1800.67 1805.23 1809.02 1811.50 1813.38 1814.32 1819.56 1823.64
 1828.88 1831.20 1834.00 1835.42 1837.72 1838.89 1843.99 1844.00 1844.41
 1844.62 1846.44 1847.44 1850.33 1850.92 1854.35 1854.51 1855.52 1857.74
 1858.02 1859.47 1861.12 1861.23 1864.39 1864.83 1865.10 1865.32 1865.34
 1865.74 1865.91 1866.37 1868.73 1868.78 1869.19 1869.42 1870.55 1871.02
 1871.11 1871.51 1872.89 1872.99 1875.42 1875.54 1875.76 1875.84 1878.14
 1878.26 1880.99 1881.49 1882.58 1882.77 1885.65 1885.78 1887.97 1888.06
 1890.93 1890.98 1891.68 1891.68 1902.15 1902.19 1902.60 1902.65 1908.61
 1908.63 1913.61 1913.63 1952.02 1952.03 1972.32 1972.33 1973.84 1973.84
 2010.46 2010.46 2167.79 2167.80 2192.07 2192.07


--------------------------------------------------------------------------------
  K point      2 =   0.026316  0.000000  0.000000  Weight =    0.050
--------------------------------------------------------------------------------

  Frequencies (cm-1) : 

  -86.63  -86.40  -59.42  -59.38  -50.13  -49.88  -49.42  -41.21  -36.19
  -35.48  -19.49  -18.47   -0.50    1.66    3.15   24.80   49.46   59.95
   66.86   84.56   98.44  116.20  122.69  123.87  130.58  131.34  143.00
  171.20  177.64  181.62  185.84  188.41  191.31  191.64  191.76  192.42
  193.00  197.41  199.59  200.05  200.90  208.23  209.10  210.03  211.07
  220.37  223.71  227.04  227.63  229.37  231.29  234.89  239.80  241.28
  243.27  249.78  252.65  256.20  256.46  260.70  261.91  263.59  266.18
  279.70  286.06  288.33  291.58  292.66  294.29  310.88  314.53  316.36
  319.47  320.11  322.44  322.46  324.04  336.40  340.54  345.35  348.96
  349.19  350.63  351.72  356.57  360.88  366.06  367.53  375.13  379.55
  383.21  383.42  383.95  384.21  390.66  394.08  440.13  443.31  462.47
  468.01  480.55  480.96  482.05  484.28  497.51  503.75  520.57  524.13
  528.41  534.60  549.41  557.79  562.76  565.52  571.02  571.27  571.37
  577.06  578.56  580.56  580.88  588.52  594.97  597.27  598.32  598.42
  601.46  601.81  603.72  606.08  611.70  612.17  612.34  618.70  621.91
  624.99  625.11  625.27  626.73  629.32  632.11  633.35  635.13  636.04
  637.67  639.13  644.20  644.51  645.46  647.28  650.35  655.48  657.61
  660.52  662.77  664.90  669.21  670.96  672.43  676.13  676.95  677.77
  680.20  680.95  681.24  684.88  688.78  691.17  692.50  692.99  701.16
  702.96  706.15  707.21  714.60  716.63  717.27  719.01  723.67  723.69
  724.96  725.33  728.96  731.98  739.58  741.83  742.21  743.10  752.81
  754.06  755.13  756.21  756.35  756.93  757.27  757.39  760.20  762.94
  763.67  766.40  767.67  768.07  768.65  769.13  773.14  774.14  778.43
  788.47  788.58  788.71  789.91  794.31  794.88  796.62  801.28  801.37
  808.38  828.78  829.82  832.25  846.76  846.97  848.50  852.36  861.34
  861.41  868.37  879.59  888.18  889.78  907.18  912.26  914.79  923.32
  925.50  933.22  936.01  950.52  953.03  963.49  964.15  965.11  972.39
  974.73  975.36  982.26  982.39  985.12  986.70  987.44  987.69 1003.12
 1004.67 1008.54 1010.08 1023.54 1029.03 1029.20 1031.16 1038.03 1042.03
 1047.77 1049.31 1056.28 1065.77 1070.81 1071.35 1077.92 1089.12 1090.28
 1099.62 1102.58 1102.78 1110.04 1112.51 1114.97 1128.50 1130.74 1134.52
 1136.61 1161.93 1166.72 1168.63 1168.96 1177.47 1179.06 1197.53 1207.04
 1219.35 1219.63 1226.09 1226.42 1232.20 1242.21 1246.94 1259.10 1270.94
 1280.80 1294.22 1297.54 1326.13 1328.98 1348.51 1349.54 1412.07 1416.27
 1433.18 1435.90 1470.67 1474.62 1482.62 1483.27 1503.86 1513.23 1516.82
 1524.82 1534.53 1538.37 1545.85 1552.00 1553.64 1555.91 1558.72 1569.83
 1572.12 1577.29 1585.88 1594.12 1596.36 1598.23 1599.05 1605.22 1612.83
 1621.41 1627.69 1630.53 1633.63 1634.27 1636.13 1648.79 1656.01 1657.62
 1658.05 1660.05 1661.33 1674.34 1678.26 1678.91 1684.11 1684.45 1690.00
 1691.40 1697.38 1702.07 1704.89 1705.46 1707.25 1714.21 1715.55 1716.73
 1721.70 1733.15 1749.33 1751.33 1754.28 1754.30 1774.56 1779.33 1789.56
 1798.79 1800.71 1805.23 1809.02 1811.49 1813.38 1814.32 1819.57 1823.63
 1828.89 1831.20 1834.00 1835.41 1837.72 1838.89 1843.99 1844.00 1844.41
 1844.62 1846.44 1847.44 1850.33 1850.92 1854.35 1854.51 1855.52 1857.71
 1858.04 1859.47 1861.12 1861.23 1864.39 1864.83 1865.10 1865.32 1865.34
 1865.74 1865.91 1866.37 1868.73 1868.78 1869.19 1869.42 1870.55 1871.02
 1871.11 1871.51 1872.89 1872.99 1875.42 1875.54 1875.76 1875.84 1878.14
 1878.26 1880.99 1881.48 1882.58 1882.77 1885.65 1885.78 1887.97 1888.06
 1890.93 1890.98 1891.68 1891.68 1902.15 1902.19 1902.60 1902.65 1908.61
 1908.63 1913.61 1913.63 1952.02 1952.03 1972.32 1972.33 1973.84 1973.84
 2010.46 2010.46 2167.79 2167.80 2192.07 2192.07


 Group velocities (cm-1.Ang) : 

 Mode         X             Y             Z

     1      -0.273870     -0.000003     -0.000000 i
     2       0.287613      0.000003     -0.000000 i
     3      -1.032029     -0.000098     -0.000000 i
     4      -0.923399      0.000095     -0.000000 i
     5      55.806143     -0.018509     -0.000000 i
     6      13.769734      0.016684     -0.000000 i
     7     -62.103823      0.003716     -0.000000 i
     8     -20.955357     -0.002560     -0.000000 i
     9     120.323197     -0.010289     -0.000000 i
    10    -135.664532      0.009986     -0.000000 i
    11     168.679240     -0.007767     -0.000000 i
    12    -169.142018      0.007723     -0.000000 i
    13     183.007484     -0.008436     -0.000000 i
    14     603.683706      0.024225      0.000000
    15    1143.787638     -0.013287      0.000000
    16    -116.227246     -0.006031      0.000000
    17      74.774402      0.003279      0.000000
    18    -292.258708     -0.012558      0.000000
    19     292.318925      0.012582      0.000000
    20     -76.324100     -0.002619      0.000000
    21      74.559034      0.002345      0.000000
    22   -1073.110213      0.009553      0.000000
    23    1007.365289     -0.003628      0.000000
    24    -251.594180     -0.015937      0.000000
    25     316.819476      0.010036      0.000000
    26     -80.094767     -0.002013      0.000000
    27      78.765671      0.001694      0.000000
    28     -32.662923      0.002802      0.000000
    29       0.302232      0.001010      0.000000
    30     -74.467081     -0.025141      0.000000
    31     100.572961      0.025531      0.000000
    32    -442.763085     -0.021244      0.000000
    33      -0.140956      0.268195      0.000000
    34     -21.150313     -1.137225      0.000000
    35      22.520369      0.919757      0.000000
    36       2.599756     -0.056640      0.000000
    37     442.172816      0.021222      0.000000
    38      -4.788862      0.040134      0.000000
    39     -30.271768     -0.052560      0.000000
    40       7.988233     -0.084110      0.000000
    41      32.694671      0.107032      0.000000
    42     -11.055837      0.430443      0.000000
    43    -154.938764     -1.121680      0.000000
    44     150.836779      0.802037      0.000000
    45      18.965791     -0.119021      0.000000
    46     -47.727129      0.061287      0.000000
    47      18.710873     -0.086496      0.000000
    48     -46.255768      0.123616      0.000000
    49    -213.183645     -0.146150      0.000000
    50     249.588578      0.012570      0.000000
    51      48.565553      0.030791      0.000000
    52   -1077.055309      0.016362      0.000000
    53     -57.732987      0.024956      0.000000
    54    1076.243654     -0.016453      0.000000
    55      60.156900     -0.019939      0.000000
    56     -51.874787     -0.016689      0.000000
    57    -534.903958     -0.027275      0.000000
    58      55.523330      0.012296      0.000000
    59     534.792292      0.027564      0.000000
    60    -183.428868      0.385413      0.000000
    61     -66.372008     -0.424919      0.000000
    62     181.626857     -0.101401      0.000000
    63      67.909063      0.145305      0.000000
    64     -71.566629     -0.003796      0.000000
    65       8.677739      0.012226      0.000000
    66     -16.525831      0.132560      0.000000
    67      81.925326     -0.148827      0.000000
    68    -284.512214     -0.293636      0.000000
    69     283.815893      0.300626      0.000000
    70     -45.083719      0.016416      0.000000
    71     -50.858338      0.020587      0.000000
    72    -537.050079     -0.030790      0.000000
    73      12.692078     -0.068054      0.000000
    74     536.913757      0.031006      0.000000
    75      77.912360      3.925751      0.000000
    76    -247.706895     -4.058025      0.000000
    77     245.638015      0.163782      0.000000
    78     -42.573448      0.026011      0.000000
    79      31.664466     -0.022597      0.000000
    80     -30.385622     -0.053787      0.000000
    81      12.363135      0.015265      0.000000
    82     -93.911049      0.080193      0.000000
    83   -1079.800117      0.018219      0.000000
    84      90.587524     -0.047682      0.000000
    85    1074.262895     -0.018646      0.000000
    86     -15.553715      0.001529      0.000000
    87       5.431783      0.001028      0.000000
    88      22.384517     -0.001460      0.000000
    89     -14.701182      0.000848      0.000000
    90    -536.436576     -0.033826      0.000000
    91     539.034782      0.034294      0.000000
    92    -144.636215      0.425417      0.000000
    93      11.346918     -1.379798      0.000000
    94     135.191339      0.959147      0.000000
    95       0.169192     -0.006618      0.000000
    96      -4.430612      0.001402      0.000000
    97    -579.487214     -0.033098      0.000000
    98     575.427253      0.033741      0.000000
    99    -996.556091      0.020348      0.000000
   100     980.688045     -0.027130      0.000000
   101      12.550416      0.289103      0.000000
   102      -5.267198     -0.426573      0.000000
   103      -0.955421      0.141581      0.000000
   104      -0.824953      0.011348      0.000000
   105    -206.509433     -0.034372      0.000000
   106     199.118551      0.022228      0.000000
   107      10.169931      0.074393      0.000000
   108     -13.128230     -0.111853      0.000000
   109       8.858499      0.023996      0.000000
   110      -9.450446      0.021925      0.000000
   111     -48.087963     -0.012087      0.000000
   112    -155.340643     -0.024821      0.000000
   113       6.263386      0.059254      0.000000
   114       4.713951      0.000194      0.000000
   115      45.455654     -0.594718      0.000000
   116      58.781264      0.584932      0.000000
   117     -13.848078     -0.001937      0.000000
   118     -43.289304     -0.017608      0.000000
   119      -3.205812      0.047496      0.000000
   120      26.509452     -0.338224      0.000000
   121      -4.329298      0.293747      0.000000
   122      87.511535     -0.004852      0.000000
   123     -14.856730     -0.005396      0.000000
   124     -24.934889      0.007389      0.000000
   125       0.696534     -0.011060      0.000000
   126       0.003514      0.005189      0.000000
   127      47.172377      0.000412      0.000000
   128     -92.200194      0.036346      0.000000
   129     117.846279     -0.048764      0.000000
   130     -11.872402      0.016345      0.000000
   131      -2.184405     -0.004181      0.000000
   132       8.048319     -0.056279      0.000000
   133      21.703632      0.032644      0.000000
   134     -63.252572      0.052046      0.000000
   135     -14.959702     -0.000391      0.000000
   136    -121.048799      0.074991      0.000000
   137      56.673951     -0.084349      0.000000
   138      14.906667      0.003099      0.000000
   139     100.126417     -0.022628      0.000000
   140      -2.971919     -0.007422      0.000000
   141      10.040402      0.007282      0.000000
   142     -74.191347      0.015919      0.000000
   143      12.978998      0.023337      0.000000
   144      88.358146     -0.011323      0.000000
   145       4.498839     -0.015646      0.000000
   146     -22.133715      0.019389      0.000000
   147      -7.436023     -0.004229      0.000000
   148     -77.923248     -0.360122      0.000000
   149      65.052498      0.464763      0.000000
   150      -3.189258     -0.123992      0.000000
   151      15.725600     -0.001331      0.000000
   152       6.684846     -0.008210      0.000000
   153       9.811134     -0.016978      0.000000
   154     -81.237701      0.061685      0.000000
   155      79.613393     -0.044237      0.000000
   156     -64.466275     -0.013890      0.000000
   157       1.103029      0.003038      0.000000
   158      -2.203024     -0.000194      0.000000
   159     -49.336367     -0.003809      0.000000
   160     -28.690644      0.007917      0.000000
   161    -197.043355      0.042917      0.000000
   162      49.525017     -0.005574      0.000000
   163      12.347269      0.011872      0.000000
   164      23.663490     -0.025359      0.000000
   165      36.885481      0.003155      0.000000
   166     -51.697930      0.005252      0.000000
   167      48.151715     -0.005430      0.000000
   168     175.977146     -0.021231      0.000000
   169       2.056178     -0.004094      0.000000
   170      43.934647      0.015880      0.000000
   171    -127.979918     -0.029262      0.000000
   172     128.066607      0.056695      0.000000
   173     -30.495061     -0.032125      0.000000
   174     -18.251367     -0.002183      0.000000
   175      29.963519      0.006400      0.000000
   176      21.046645      0.002497      0.000000
   177     -29.069287     -0.192327      0.000000
   178     -50.776588      0.227002      0.000000
   179    -134.065975      0.020125      0.000000
   180      45.843732      0.006020      0.000000
   181     136.983666     -0.023410      0.000000
   182      43.323634     -0.044388      0.000000
   183     -17.233599     -0.000430      0.000000
   184     -22.535665     -0.001253      0.000000
   185      16.993852     -0.010217      0.000000
   186    -118.148268      0.044188      0.000000
   187      31.414409      0.006658      0.000000
   188      99.083596     -0.035886      0.000000
   189     -15.368834     -0.004466      0.000000
   190     -12.502665     -0.406542      0.000000
   191     -48.744154      0.468921      0.000000
   192    -140.103569     -0.130357      0.000000
   193     -37.532711     -0.001938      0.000000
   194     -11.025146      0.264587      0.000000
   195     142.248162      0.036191      0.000000
   196      -0.726049     -0.166138      0.000000
   197      22.310291      0.011585      0.000000
   198      -5.193119     -0.017540      0.000000
   199      12.930027     -0.060406      0.000000
   200       2.592678     -0.002822      0.000000
   201     -19.599113      0.123701      0.000000
   202      -1.836087     -0.174546      0.000000
   203      18.522538      0.030574      0.000000
   204      -5.283598      0.029711      0.000000
   205      -7.784699     -0.002139      0.000000
   206     -60.406363      0.030375      0.000000
   207      26.788565     -0.043256      0.000000
   208      -1.227695     -7.597746      0.000000
   209      48.272371      7.745336      0.000000
   210       3.086112      0.000063      0.000000
   211      -0.699037     -0.000039      0.000000
   212      52.011982      0.021147      0.000000
   213     -24.575812     -0.162606      0.000000
   214       5.802269     -0.000029      0.000000
   215      17.743316      0.000780      0.000000
   216      -5.897940      0.000015      0.000000
   217       2.289996      0.004865      0.000000
   218     -23.502793      0.003393      0.000000
   219       3.298414     -0.000002      0.000000
   220      -2.798572      0.000002      0.000000
   221       0.159490      0.001053      0.000000
   222      -0.612997      0.000885      0.000000
   223       2.809737      0.002352      0.000000
   224      -7.635236     -0.007430      0.000000
   225       0.091996     -0.000007      0.000000
   226      -0.079974      0.000007      0.000000
   227       4.556950     -0.004067      0.000000
   228     -43.105458      0.008743      0.000000
   229       1.892362      0.000010      0.000000
   230      -2.105530     -0.000011      0.000000
   231      69.446907     -0.004771      0.000000
   232       3.068921      0.000011      0.000000
   233      -3.283585     -0.000011      0.000000
   234      -1.225767      0.000264      0.000000
   235       4.507932      0.000212      0.000000
   236       3.481484      0.000010      0.000000
   237      -3.580496     -0.000010      0.000000
   238       3.225547      0.000008      0.000000
   239      -3.161718     -0.000008      0.000000
   240       2.234722      0.000005      0.000000
   241    -321.908743      0.009448      0.000000
   242      -1.867151     -0.000005      0.000000
   243     323.240505     -0.009186      0.000000
   244       0.836587      0.000002      0.000000
   245      -0.731644     -0.000002      0.000000
   246       0.173566      0.000000      0.000000
   247      -0.159094     -0.000000      0.000000
   248       2.255398     -0.051392      0.000000
   249      -0.032487      0.393255      0.000000
   250      -2.220946     -1.002120      0.000000
   251      -0.785717      0.659350      0.000000
   252       3.924924     -0.124968      0.000000
   253       1.326733      0.224814      0.000000
   254      -1.727610     -0.201078      0.000000
   255      -5.084332      0.098875      0.000000
   256       7.806861     -0.002202      0.000000
   257     -12.538619      0.244018      0.000000
   258       9.322016     -0.259655      0.000000
   259      -9.307465      0.025265      0.000000
   260    -556.693404      0.022045      0.000000
   261     554.666761     -0.030309      0.000000
   262       1.153406      0.063167      0.000000
   263      -0.609451     -0.073475      0.000000
   264      10.778004      0.008861      0.000000
   265     -23.187637      0.017239      0.000000
   266      -3.791890      0.520405      0.000000
   267      -0.731294     -0.594076      0.000000
   268      34.574051      0.068565      0.000000
   269       0.032596      0.056284      0.000000
   270      -5.433088     -0.054807      0.000000
   271    -225.771712     -0.136915      0.000000
   272     -30.573303      2.839358      0.000000
   273     183.404694     -2.767034      0.000000
   274     -18.617305      0.164527      0.000000
   275       8.806962     -0.106352      0.000000
   276      18.392230     -0.009334      0.000000
   277      39.581726     -0.056196      0.000000
   278      -2.963334      0.135665      0.000000
   279      41.548962     -0.105744      0.000000
   280      -7.658233      0.032040      0.000000
   281      10.769825      0.005096      0.000000
   282    -263.497432      0.139005      0.000000
   283    -139.965585     -0.137957      0.000000
   284     182.542360     -0.041056      0.000000
   285     143.523187      0.116871      0.000000
   286      60.576062     -0.084682      0.000000
   287      21.768442      0.008460      0.000000
   288     -29.432905      0.012026      0.000000
   289     -88.430118      0.036759      0.000000
   290    -155.639874     -0.087128      0.000000
   291      82.067017     -0.017814      0.000000
   292     146.367559      0.060157      0.000000
   293      21.902539     -0.003491      0.000000
   294      -7.122479     -0.001130      0.000000
   295     -13.346732     -0.001198      0.000000
   296     -43.789133     -0.002993      0.000000
   297      31.963184      0.002364      0.000000
   298      -5.605107     -0.000468      0.000000
   299       3.656931      0.000209      0.000000
   300      -4.310631     -0.000292      0.000000
   301       3.603707      0.000446      0.000000
   302      -3.484788     -0.000398      0.000000
   303       1.333785     -0.000205      0.000000
   304      -1.228976      0.000196      0.000000
   305       4.631988      0.000107      0.000000
   306      -6.074687     -0.000031      0.000000
   307       4.363143     -0.000763      0.000000
   308      -2.672030      0.000718      0.000000
   309       3.140114      0.005400      0.000000
   310      -8.182122     -0.014824      0.000000
   311       4.993881      0.105780      0.000000
   312       1.527165     -0.096629      0.000000
   313       5.457516      0.003601      0.000000
   314     -41.810035     -0.035479      0.000000
   315      37.808584      0.040649      0.000000
   316      -8.449907     -0.002898      0.000000
   317      14.814462     -0.004215      0.000000
   318      11.545247     -0.006338      0.000000
   319     -19.246146     -0.011151      0.000000
   320       9.959223      0.049386      0.000000
   321     -46.841255     -0.041712      0.000000
   322     -49.794143      0.028830      0.000000
   323      94.696372     -0.019715      0.000000
   324       0.825925      0.000740      0.000000
   325       1.752384      0.002146      0.000000
   326      -7.086025     -0.009350      0.000000
   327      -3.761444      0.001439      0.000000
   328     -29.738491      0.006840      0.000000
   329       7.654553      0.099283      0.000000
   330     -51.185601     -0.372056      0.000000
   331      66.681835      0.298678      0.000000
   332      12.048147     -0.049217      0.000000
   333       7.099886      0.031170      0.000000
   334      -1.855439     -0.022554      0.000000
   335     -11.137747      0.009909      0.000000
   336     -87.569705      0.069104      0.000000
   337      81.054318      0.042337      0.000000
   338       5.706118     -0.259984      0.000000
   339      10.355990      0.159743      0.000000
   340      -1.217939     -0.044119      0.000000
   341     -10.092897      0.208408      0.000000
   342      -8.618583     -0.304675      0.000000
   343       1.430582      0.171504      0.000000
   344    -109.570139     -0.052921      0.000000
   345     126.481909      0.005895      0.000000
   346      -8.753868     -0.074586      0.000000
   347       0.425727      0.557198      0.000000
   348       1.791748     -0.459481      0.000000
   349      -2.194812      0.039263      0.000000
   350     -12.231521     -0.049445      0.000000
   351       9.411354     -0.081058      0.000000
   352      -0.045104      0.056608      0.000000
   353       9.634644      0.020876      0.000000
   354      -1.919045      0.061153      0.000000
   355       0.427611     -0.082996      0.000000
   356      -0.871139      0.022109      0.000000
   357       3.087100     -0.015963      0.000000
   358     -12.717835     -0.095369      0.000000
   359      -0.036615      0.243905      0.000000
   360     -21.919172     -0.138252      0.000000
   361      35.643119      0.003783      0.000000
   362     -10.523581     -0.000973      0.000000
   363       3.520739     -0.000570      0.000000
   364      -1.806687      0.001223      0.000000
   365       0.027487     -0.006798      0.000000
   366      -0.012115      0.006395      0.000000
   367       4.527582      0.000298      0.000000
   368      -8.780847     -0.000881      0.000000
   369      10.966902      0.001632      0.000000
   370     -36.516178     -0.007335      0.000000
   371      32.812861      0.007306      0.000000
   372      -1.727258     -0.000786      0.000000
   373       2.158509     -0.000435      0.000000
   374      -3.268199      0.000678      0.000000
   375       0.349778      0.000438      0.000000
   376      -3.576986     -0.001760      0.000000
   377       6.584282      0.001708      0.000000
   378      -5.134930     -0.001410      0.000000
   379       3.642233      0.001249      0.000000
   380      -2.907571     -0.001033      0.000000
   381       2.105723      0.000320      0.000000
   382      -1.909767      0.000189      0.000000
   383       1.842114     -0.000774      0.000000
   384      -1.288319      0.000593      0.000000
   385       0.008698     -0.000219      0.000000
   386      -0.009340      0.000329      0.000000
   387       0.215097     -0.003373      0.000000
   388      -0.285417      0.003660      0.000000
   389       1.306860      0.000204      0.000000
   390      -1.199486     -0.001052      0.000000
   391       0.631219      0.000866      0.000000
   392      -0.888602     -0.000700      0.000000
   393       0.510274      0.046961      0.000000
   394      -0.049305     -0.056605      0.000000
   395       1.525423      0.012169      0.000000
   396     -16.508439      0.008481      0.000000
   397      15.819740     -0.014628      0.000000
   398      -0.383349      0.004174      0.000000
   399      -0.166253     -0.008229      0.000000
   400      -0.496266      0.008303      0.000000
   401       0.435206     -0.009312      0.000000
   402      -1.175678      0.081604      0.000000
   403       1.159620     -0.186207      0.000000
   404      -0.005627     -0.096266      0.000000
   405       0.024537      0.256857      0.000000
   406      -2.158446     -0.028700      0.000000
   407       2.145107     -0.037438      0.000000
   408      -0.321078      0.019667      0.000000
   409       0.040674     -0.017422      0.000000
   410      -0.091415      0.024983      0.000000
   411       0.338054     -0.012298      0.000000
   412      -0.250118      0.001296      0.000000
   413       0.263339     -0.000446      0.000000
   414      -3.876193      0.057398      0.000000
   415       3.835966     -0.060034      0.000000
   416      -0.141628      0.006608      0.000000
   417       0.043094      0.003848      0.000000
   418      -0.189578     -0.005280      0.000000
   419      -0.003538     -0.148680      0.000000
   420      -0.306130      0.293750      0.000000
   421       0.261741     -0.330862      0.000000
   422       0.111511      0.186552      0.000000
   423       0.112280      0.005521      0.000000
   424      -0.129568     -0.005743      0.000000
   425       0.446220     -0.010042      0.000000
   426      -0.899327      0.018975      0.000000
   427       0.554730     -0.032318      0.000000
   428      -0.014396      0.023458      0.000000
   429       0.078377     -0.000106      0.000000
   430      -0.250685      0.000436      0.000000
   431       0.162338     -0.002938      0.000000
   432      -0.075859      0.002794      0.000000
   433       0.039405     -0.003767      0.000000
   434      -0.068173      0.003954      0.000000
   435       0.009721     -0.013461      0.000000
   436       0.005010      0.013230      0.000000
   437       0.028332      0.000774      0.000000
   438      -0.033267     -0.000967      0.000000
   439       0.017569      0.001029      0.000000
   440      -0.012634     -0.000835      0.000000
   441       0.006988      0.000004      0.000000
   442      -0.006999     -0.000004      0.000000
   443       0.001868     -0.000001      0.000000
   444      -0.001851      0.000001      0.000000
   445       0.000000     -0.000000      0.000000
   446      -0.000000      0.000000      0.000000
   447       0.000000     -0.000000      0.000000
   448      -0.000000      0.000000      0.000000
   449       0.000000      0.000000      0.000000
   450      -0.000000      0.000000      0.000000
   451       0.000000     -0.000000      0.000000
   452      -0.000000      0.000000      0.000000
   453       0.000000      0.000000      0.000000
   454       0.000000      0.000000      0.000000
   455       0.000000     -0.000000      0.000000
   456       0.000000     -0.000000      0.000000


--------------------------------------------------------------------------------
  K point      3 =   0.052632  0.000000  0.000000  Weight =    0.050
--------------------------------------------------------------------------------

  Frequencies (cm-1) : 

  -86.62  -86.40  -59.42  -59.37  -50.31  -49.94  -49.22  -41.13  -36.51
  -35.09  -19.97  -18.00   -1.01    3.33    6.30   24.33   49.76   58.91
   67.91   84.25   98.74  113.16  122.71  125.76  131.02  131.71  143.31
  171.06  177.65  181.34  186.22  187.01  191.31  191.58  191.82  192.43
  194.40  197.39  199.47  200.08  201.03  208.19  208.66  210.45  211.15
  220.18  223.77  226.86  227.04  230.12  231.48  231.87  239.58  243.50
  244.30  249.57  251.08  256.42  258.03  260.07  261.65  264.21  266.45
  279.42  286.06  288.32  291.86  291.89  295.08  310.70  314.32  314.80
  319.54  321.68  321.75  322.75  324.74  336.23  340.66  345.22  347.65
  348.85  349.01  352.04  359.53  360.82  366.08  367.62  375.07  378.00
  383.01  383.99  384.58  384.77  390.66  394.06  438.53  444.89  459.71
  470.71  480.61  480.94  482.05  484.28  496.75  504.48  520.61  524.08
  528.45  534.56  549.21  557.17  562.78  565.54  571.20  571.32  571.50
  576.88  578.55  580.67  580.86  588.87  594.91  597.16  598.33  598.42
  601.50  601.66  604.13  606.03  611.69  612.19  612.44  618.45  621.85
  624.57  625.33  625.33  627.06  629.31  632.16  633.08  635.18  636.36
  637.68  639.04  644.16  644.25  645.67  647.27  650.41  655.51  657.65
  660.23  663.05  664.63  669.21  670.95  672.24  676.01  676.19  677.96
  680.25  681.04  681.39  684.68  688.97  691.78  692.50  693.24  700.74
  703.39  706.03  707.14  714.73  716.72  717.15  718.80  723.26  723.87
  725.38  725.50  728.89  731.89  739.65  741.47  742.30  743.43  752.75
  754.01  754.92  755.80  756.21  756.87  757.40  757.69  760.29  762.92
  763.72  766.41  767.60  768.06  768.73  769.11  773.11  773.90  778.54
  788.47  788.72  788.77  789.91  794.53  794.78  796.64  801.34  801.35
  808.39  828.68  829.84  832.24  846.76  846.97  848.51  852.32  861.34
  861.41  868.39  879.41  888.19  889.77  907.46  912.27  914.77  923.32
  925.52  933.23  935.99  950.53  953.02  962.99  963.50  965.10  973.56
  974.73  975.35  982.26  982.39  985.13  986.70  987.43  987.69 1003.14
 1004.68 1008.54 1010.06 1023.57 1028.99 1029.24 1031.11 1036.40 1043.65
 1047.78 1049.31 1056.33 1065.68 1070.80 1071.34 1078.06 1089.12 1090.26
 1098.84 1102.45 1103.38 1109.97 1112.54 1115.04 1128.66 1130.73 1134.68
 1136.57 1161.97 1165.86 1168.09 1169.48 1178.03 1179.31 1197.62 1206.92
 1219.00 1219.04 1226.41 1226.97 1232.29 1242.18 1246.89 1258.92 1271.07
 1280.77 1294.23 1297.53 1326.14 1328.96 1348.51 1349.53 1412.09 1416.25
 1433.20 1435.89 1470.68 1474.59 1482.64 1483.27 1503.88 1513.07 1516.97
 1524.78 1534.59 1538.41 1545.77 1552.04 1553.45 1555.74 1559.07 1569.83
 1572.12 1577.26 1585.87 1594.00 1596.39 1598.06 1599.28 1605.27 1612.86
 1621.40 1627.65 1630.20 1633.93 1634.29 1636.18 1648.79 1655.97 1657.58
 1658.05 1659.71 1661.74 1674.30 1678.27 1678.92 1684.10 1684.40 1690.04
 1691.40 1697.42 1702.07 1704.89 1705.46 1707.26 1714.15 1715.55 1716.65
 1721.85 1733.10 1749.34 1751.32 1754.28 1754.30 1774.58 1779.29 1789.60
 1798.65 1800.84 1805.22 1809.03 1811.48 1813.38 1814.30 1819.59 1823.61
 1828.90 1831.19 1834.01 1835.41 1837.73 1838.88 1843.99 1844.00 1844.41
 1844.62 1846.44 1847.43 1850.33 1850.91 1854.35 1854.51 1855.53 1857.66
 1858.10 1859.47 1861.12 1861.23 1864.39 1864.83 1865.10 1865.32 1865.34
 1865.73 1865.92 1866.37 1868.73 1868.78 1869.19 1869.42 1870.56 1871.00
 1871.13 1871.51 1872.89 1872.99 1875.42 1875.53 1875.76 1875.84 1878.15
 1878.26 1880.99 1881.48 1882.59 1882.77 1885.65 1885.78 1887.97 1888.06
 1890.93 1890.98 1891.68 1891.68 1902.15 1902.19 1902.60 1902.65 1908.61
 1908.63 1913.61 1913.63 1952.02 1952.03 1972.32 1972.33 1973.84 1973.84
 2010.46 2010.46 2167.79 2167.80 2192.07 2192.07


 Group velocities (cm-1.Ang) : 

 Mode         X             Y             Z

     1      -0.546002     -0.000005     -0.000000 i
     2       0.573113      0.000005     -0.000000 i
     3      -2.042457     -0.000198     -0.000000 i
     4      -1.825555      0.000192     -0.000000 i
     5      69.836559     -0.019912     -0.000000 i
     6      26.664179      0.016501     -0.000000 i
     7     -82.457345      0.007099     -0.000000 i
     8     -38.969361     -0.004986     -0.000000 i
     9     108.164878     -0.010563     -0.000000 i
    10    -140.996397      0.009913     -0.000000 i
    11     174.000922     -0.008038     -0.000000 i
    12    -174.911452      0.007950     -0.000000 i
    13     182.997679     -0.008434     -0.000000 i
    14     603.538499      0.024795      0.000000
    15    1143.781530     -0.013580      0.000000
    16    -229.266955     -0.011930      0.000000
    17     144.849210      0.006338      0.000000
    18    -448.261873     -0.019264      0.000000
    19     448.384235      0.019313      0.000000
    20    -146.291756     -0.005030      0.000000
    21     142.759764      0.004482      0.000000
    22   -1117.313988      0.010646      0.000000
    23    -454.815993     -0.015996      0.000000
    24    1086.692640     -0.008352      0.000000
    25    -151.888457     -0.003828      0.000000
    26     484.398014      0.013749      0.000000
    27     149.224501      0.003188      0.000000
    28     -65.352408      0.005387      0.000000
    29       0.610106      0.002024      0.000000
    30    -122.072489     -0.042838      0.000000
    31     174.055709      0.043541      0.000000
    32    -549.818538     -0.026367      0.000000
    33      -0.084384      0.566081      0.000000
    34     -20.359398     -1.310406      0.000000
    35      23.072136      0.843772      0.000000
    36       5.192575     -0.111120      0.000000
    37     548.551329      0.026315      0.000000
    38      -9.251471      0.079139      0.000000
    39     -50.432240     -0.104249      0.000000
    40      15.657010     -0.131155      0.000000
    41      55.097943      0.177498      0.000000
    42     -20.374769      1.212950      0.000000
    43    -162.183965     -1.795571      0.000000
    44     153.793191      0.821043      0.000000
    45      36.423445     -0.254988      0.000000
    46     -88.361947      0.111415      0.000000
    47      20.815598     -0.160238      0.000000
    48     -84.721522      0.531190      0.000000
    49    -203.856214     -0.542408      0.000000
    50     286.381767     -0.010020      0.000000
    51      89.291568      0.061237      0.000000
    52   -1107.063054      0.016871      0.000000
    53    -101.617064      0.044854      0.000000
    54     106.510508     -0.034873      0.000000
    55    1105.519395     -0.017277      0.000000
    56     -96.974067     -0.031220      0.000000
    57    -587.083114     -0.029463      0.000000
    58     104.262438      0.021490      0.000000
    59     586.857940      0.030274      0.000000
    60    -257.164092      0.445688      0.000000
    61    -118.044580     -0.448171      0.000000
    62     253.558417     -0.271783      0.000000
    63     121.139457      0.284140      0.000000
    64    -132.385918     -0.007292      0.000000
    65     -18.339472      0.043295      0.000000
    66      13.847970      0.217024      0.000000
    67    -289.232268     -2.717171      0.000000
    68     141.567775      2.163971      0.000000
    69     288.163020      0.298495      0.000000
    70     -86.269014      0.031515      0.000000
    71    -100.490551      0.037494      0.000000
    72    -585.466081     -0.033461      0.000000
    73      35.754804     -0.122052      0.000000
    74     585.200510      0.033893      0.000000
    75    -265.225918     -0.020171      0.000000
    76     144.417668     -0.081537      0.000000
    77     256.875558      0.155667      0.000000
    78     -79.347481      0.048388      0.000000
    79      56.820319     -0.041106      0.000000
    80     -58.490061     -0.104006      0.000000
    81   -1082.149490      0.018058      0.000000
    82    -146.508363      0.046757      0.000000
    83      22.424260      0.117461      0.000000
    84     140.610915     -0.072729      0.000000
    85    1070.203716     -0.018957      0.000000
    86     -30.000780      0.003047      0.000000
    87      10.933376      0.001997      0.000000
    88      43.560239     -0.002841      0.000000
    89     -28.854127      0.001715      0.000000
    90    -576.568771     -0.036215      0.000000
    91    -149.942686      0.213743      0.000000
    92      22.267030     -0.667266      0.000000
    93     130.932664      0.463064      0.000000
    94     582.637517      0.037196      0.000000
    95       0.492641     -0.013263      0.000000
    96      -8.849727      0.002816      0.000000
    97    -581.643676     -0.032734      0.000000
    98     573.401145      0.034042      0.000000
    99   -1006.714816      0.018354      0.000000
   100     970.279383     -0.033432      0.000000
   101      29.814849      0.746232      0.000000
   102     -10.700709     -1.024415      0.000000
   103      -2.100219      0.288357      0.000000
   104      -1.606122      0.022709      0.000000
   105    -332.589240     -0.058585      0.000000
   106     317.912117      0.033652      0.000000
   107      20.309140      0.153260      0.000000
   108     -25.898170     -0.226510      0.000000
   109      17.367414      0.046022      0.000000
   110     -18.942930      0.044340      0.000000
   111     -94.669291     -0.024139      0.000000
   112    -294.631472     -0.033485      0.000000
   113      13.687952      0.087854      0.000000
   114       9.420466      0.000388      0.000000
   115      87.988448     -0.784150      0.000000
   116     -27.194283     -0.003745      0.000000
   117     106.017235      0.780254      0.000000
   118     -81.976599     -0.036379      0.000000
   119      -5.133467      0.088437      0.000000
   120      51.222071     -1.048161      0.000000
   121      -8.597219      0.965635      0.000000
   122     164.851307     -0.010259      0.000000
   123     -30.549802     -0.010615      0.000000
   124     -48.205191      0.014834      0.000000
   125       1.117301     -0.022422      0.000000
   126       0.002914      0.011359      0.000000
   127    -122.357199      0.051674      0.000000
   128      95.024135      0.000457      0.000000
   129     174.407623     -0.081944      0.000000
   130     -23.551745      0.037943      0.000000
   131      -4.413679     -0.009773      0.000000
   132       5.607009     -0.062628      0.000000
   133      52.547605      0.015002      0.000000
   134    -115.471083      0.101275      0.000000
   135     -29.929592     -0.000661      0.000000
   136    -173.705355      0.040779      0.000000
   137      29.418098      0.006045      0.000000
   138     102.428926     -0.064761      0.000000
   139     131.994624     -0.035332      0.000000
   140      -5.878840     -0.014939      0.000000
   141      20.399822      0.014497      0.000000
   142    -116.748432      0.027422      0.000000
   143      25.789469      0.046706      0.000000
   144     145.142792     -0.018052      0.000000
   145       8.124863     -0.034495      0.000000
   146     -42.589358      0.041912      0.000000
   147     -14.569314     -0.008463      0.000000
   148    -107.904280     -0.455163      0.000000
   149      82.786363      0.672923      0.000000
   150      -6.608976     -0.256769      0.000000
   151      29.996363     -0.002629      0.000000
   152      13.209018     -0.015156      0.000000
   153      19.370530     -0.036502      0.000000
   154    -126.630103      0.105914      0.000000
   155     123.633813     -0.068584      0.000000
   156    -128.127492     -0.030095      0.000000
   157       2.308055      0.007995      0.000000
   158      -6.023451     -0.001740      0.000000
   159     -91.426395     -0.006422      0.000000
   160     -53.034904      0.011398      0.000000
   161    -345.393970      0.077609      0.000000
   162      91.751988     -0.007382      0.000000
   163      24.431355      0.024948      0.000000
   164      45.224450     -0.045915      0.000000
   165      69.636828      0.005993      0.000000
   166     -93.778257      0.009352      0.000000
   167      86.695726     -0.009824      0.000000
   168     233.105727     -0.043625      0.000000
   169       4.104248     -0.002140      0.000000
   170     160.501337      0.030115      0.000000
   171    -172.514560     -0.035188      0.000000
   172     172.240325      0.096450      0.000000
   173     -58.672399     -0.069870      0.000000
   174     -35.138962     -0.004595      0.000000
   175      57.261218      0.012067      0.000000
   176      41.299174      0.005311      0.000000
   177     -52.555537     -0.381442      0.000000
   178     -95.623820      0.437571      0.000000
   179    -159.181998      0.022863      0.000000
   180      86.862793      0.024072      0.000000
   181     165.350147     -0.029715      0.000000
   182      80.669342     -0.087732      0.000000
   183     -33.806101     -0.000788      0.000000
   184     -44.405083     -0.002256      0.000000
   185      33.465099     -0.024489      0.000000
   186    -141.653551      0.070970      0.000000
   187      34.629545      0.006522      0.000000
   188     130.939954     -0.043675      0.000000
   189     -29.975892     -0.009168      0.000000
   190     -24.499856     -0.931441      0.000000
   191    -105.494657      1.045397      0.000000
   192    -154.476351     -0.098766      0.000000
   193     -65.971545      0.002063      0.000000
   194     -29.972662      0.111139      0.000000
   195       8.487603      0.157706      0.000000
   196     158.762582     -0.161162      0.000000
   197      41.867689      0.023846      0.000000
   198     -10.146920     -0.035804      0.000000
   199      25.469952     -0.116790      0.000000
   200       4.837291     -0.006364      0.000000
   201     -33.864825      0.191210      0.000000
   202      -3.705527     -0.265857      0.000000
   203      31.952267      0.025280      0.000000
   204     -10.597813      0.068931      0.000000
   205     -15.392339     -0.004312      0.000000
   206    -111.078505      0.055429      0.000000
   207      51.142443     -0.081589      0.000000
   208      -2.609098     -4.874588      0.000000
   209       6.088415      0.000124      0.000000
   210      84.937095      5.140894      0.000000
   211      -1.401197     -0.000077      0.000000
   212     106.881996      0.575884      0.000000
   213     -47.613703     -0.828781      0.000000
   214      11.573174     -0.000057      0.000000
   215     -11.755260      0.000029      0.000000
   216      34.219915      0.001643      0.000000
   217       4.908874      0.009725      0.000000
   218     -47.086062      0.006751      0.000000
   219       6.567358     -0.000004      0.000000
   220      -5.581780      0.000004      0.000000
   221       0.317531      0.002093      0.000000
   222      -1.204706      0.001724      0.000000
   223       5.613953      0.004745      0.000000
   224     -15.163080     -0.014774      0.000000
   225       0.183227     -0.000014      0.000000
   226      -0.159512      0.000013      0.000000
   227       9.148652     -0.008127      0.000000
   228     -83.826764      0.017236      0.000000
   229       3.773507      0.000020      0.000000
   230      -4.193911     -0.000021      0.000000
   231     136.317677     -0.009327      0.000000
   232       6.117254      0.000022      0.000000
   233      -6.540336     -0.000023      0.000000
   234      -2.478889      0.000531      0.000000
   235       9.206919      0.000422      0.000000
   236       6.936650      0.000020      0.000000
   237      -7.131542     -0.000020      0.000000
   238       6.423972      0.000017      0.000000
   239      -6.298001     -0.000016      0.000000
   240    -500.910795      0.014756      0.000000
   241       4.447471      0.000011      0.000000
   242      -3.723273     -0.000009      0.000000
   243     503.587300     -0.014220      0.000000
   244       1.666042      0.000004      0.000000
   245      -1.459091     -0.000003      0.000000
   246       0.345783      0.000001      0.000000
   247      -0.317234     -0.000001      0.000000
   248       4.507227     -0.103113      0.000000
   249      -0.123482      0.791737      0.000000
   250      -4.353508     -1.972203      0.000000
   251      -1.537706      1.281775      0.000000
   252       7.793396     -0.250391      0.000000
   253       2.594343      0.449735      0.000000
   254      -3.380316     -0.402960      0.000000
   255     -10.073226      0.198955      0.000000
   256      15.500204     -0.004606      0.000000
   257     -19.510726      0.325567      0.000000
   258      13.086785     -0.358458      0.000000
   259     -22.581230      0.054540      0.000000
   260    -606.781784      0.018571      0.000000
   261     605.195594     -0.042181      0.000000
   262       2.306084      0.136975      0.000000
   263       0.159072     -0.152374      0.000000
   264      21.685125      0.017331      0.000000
   265     -45.497125      0.034313      0.000000
   266      -6.870061      0.967363      0.000000
   267      -1.445994     -1.107850      0.000000
   268      67.240574      0.130422      0.000000
   269       0.032204      0.115545      0.000000
   270     -11.607137     -0.112927      0.000000
   271    -321.313595     -0.146851      0.000000
   272     -61.133625      0.931083      0.000000
   273     238.275932     -0.914595      0.000000
   274     -34.332322      0.315579      0.000000
   275      17.589041     -0.193629      0.000000
   276      33.888706     -0.022736      0.000000
   277      78.654861     -0.118724      0.000000
   278      -4.153691      0.269751      0.000000
   279      81.029467     -0.211752      0.000000
   280     -15.146315      0.072296      0.000000
   281      21.168347      0.009978      0.000000
   282    -343.703520      0.169157      0.000000
   283    -247.872764     -0.130081      0.000000
   284     182.987442     -0.103070      0.000000
   285     255.234806      0.228324      0.000000
   286     120.329382     -0.179705      0.000000
   287      43.263966      0.016860      0.000000
   288     -58.504326      0.023883      0.000000
   289    -160.690170      0.666740      0.000000
   290    -266.950106     -0.755146      0.000000
   291     147.872875     -0.012069      0.000000
   292     248.199624      0.084323      0.000000
   293      43.507933     -0.006702      0.000000
   294     -14.055890     -0.002305      0.000000
   295     -26.573431     -0.002414      0.000000
   296     -85.545807     -0.005825      0.000000
   297      61.908773      0.004578      0.000000
   298     -11.254452     -0.000938      0.000000
   299       7.308285      0.000417      0.000000
   300      -8.591661     -0.000582      0.000000
   301       7.181272      0.000888      0.000000
   302      -6.946701     -0.000793      0.000000
   303       2.657286     -0.000409      0.000000
   304      -2.450537      0.000390      0.000000
   305       9.240795      0.000213      0.000000
   306     -12.082035     -0.000064      0.000000
   307       8.668103     -0.001520      0.000000
   308      -5.336794      0.001432      0.000000
   309       6.281919      0.010790      0.000000
   310     -16.166157     -0.029210      0.000000
   311       9.784737      0.212112      0.000000
   312       3.015664     -0.194233      0.000000
   313      10.946726      0.007201      0.000000
   314     -76.816315     -0.064472      0.000000
   315      68.858336      0.074718      0.000000
   316     -16.701944     -0.005919      0.000000
   317      29.376585     -0.008051      0.000000
   318      23.051904     -0.012936      0.000000
   319     -37.827683     -0.021562      0.000000
   320      19.345292      0.109353      0.000000
   321     -93.842399     -0.091492      0.000000
   322     -67.929256      0.045900      0.000000
   323     157.861924     -0.030828      0.000000
   324       1.530778      0.001411      0.000000
   325       3.525829      0.004390      0.000000
   326     -14.375108     -0.018621      0.000000
   327      -6.962450      0.002928      0.000000
   328     -56.862587      0.013376      0.000000
   329      13.409636      0.202735      0.000000
   330     -64.049145     -0.539346      0.000000
   331      94.697152      0.387905      0.000000
   332      23.108378     -0.097528      0.000000
   333      14.479657      0.062222      0.000000
   334      -3.900007     -0.045689      0.000000
   335     -21.901807      0.022119      0.000000
   336    -143.874930      0.108667      0.000000
   337     128.002001      0.370645      0.000000
   338      11.136321     -0.784410      0.000000
   339      23.749581      0.325706      0.000000
   340      -2.844860     -0.088335      0.000000
   341     -20.487603      0.414282      0.000000
   342     -16.574613     -0.565799      0.000000
   343       2.260290      0.296080      0.000000
   344    -128.427753     -0.080017      0.000000
   345     162.874017     -0.007990      0.000000
   346     -17.476207     -0.145025      0.000000
   347       0.865767      1.088721      0.000000
   348       3.385801     -0.898209      0.000000
   349      -4.375593      0.087174      0.000000
   350     -23.540930     -0.107351      0.000000
   351      18.073482     -0.161612      0.000000
   352      -0.095244      0.113747      0.000000
   353      19.186462      0.040899      0.000000
   354      -3.877152      0.121475      0.000000
   355       0.857555     -0.165190      0.000000
   356      -1.736483      0.044618      0.000000
   357       6.213598     -0.032086      0.000000
   358     -26.155223     -0.178585      0.000000
   359      -0.071643      0.489998      0.000000
   360     -39.540856     -0.289953      0.000000
   361      67.741851      0.006767      0.000000
   362     -20.977317     -0.001937      0.000000
   363       6.984400     -0.001143      0.000000
   364      -3.610435      0.002430      0.000000
   365       0.054408     -0.013488      0.000000
   366      -0.024100      0.012694      0.000000
   367       9.040163      0.000596      0.000000
   368     -17.370957     -0.001740      0.000000
   369      21.749063      0.003241      0.000000
   370     -64.395488     -0.012854      0.000000
   371      56.981210      0.012791      0.000000
   372      -3.468779     -0.001574      0.000000
   373       4.325008     -0.000866      0.000000
   374      -6.538555      0.001345      0.000000
   375       0.702136      0.000878      0.000000
   376      -6.997584     -0.003471      0.000000
   377      13.027465      0.003379      0.000000
   378     -10.200402     -0.002799      0.000000
   379       7.217892      0.002476      0.000000
   380      -5.776007     -0.002053      0.000000
   381       4.174020      0.000629      0.000000
   382      -3.790721      0.000370      0.000000
   383       3.653557     -0.001537      0.000000
   384      -2.568735      0.001182      0.000000
   385       0.017286     -0.000435      0.000000
   386      -0.018551      0.000653      0.000000
   387       0.428842     -0.006715      0.000000
   388      -0.567221      0.007278      0.000000
   389       2.602483      0.000419      0.000000
   390      -2.391130     -0.002088      0.000000
   391       1.259408      0.001723      0.000000
   392      -1.766061     -0.001394      0.000000
   393       1.003756      0.094020      0.000000
   394      -0.099350     -0.112969      0.000000
   395       3.054076      0.024003      0.000000
   396     -24.592243      0.010880      0.000000
   397      23.214814     -0.023170      0.000000
   398      -0.776588      0.008332      0.000000
   399      -0.327073     -0.016470      0.000000
   400      -0.981591      0.016610      0.000000
   401       0.867558     -0.018649      0.000000
   402      -2.267431      0.155325      0.000000
   403       2.234985     -0.365619      0.000000
   404      -0.011496     -0.192364      0.000000
   405       0.050415      0.515317      0.000000
   406      -3.916937     -0.060728      0.000000
   407       3.889162     -0.072102      0.000000
   408      -0.641923      0.039225      0.000000
   409       0.081263     -0.034749      0.000000
   410      -0.180998      0.049621      0.000000
   411       0.672365     -0.024318      0.000000
   412      -0.499238      0.002658      0.000000
   413       0.526974     -0.000942      0.000000
   414      -5.979950      0.087828      0.000000
   415       5.899004     -0.093119      0.000000
   416      -0.285173      0.013190      0.000000
   417       0.087289      0.007682      0.000000
   418      -0.376368     -0.010508      0.000000
   419      -0.003647     -0.295225      0.000000
   420      -0.604140      0.576907      0.000000
   421       0.517425     -0.648479      0.000000
   422       0.215795      0.368297      0.000000
   423       0.223684      0.010991      0.000000
   424      -0.257810     -0.011428      0.000000
   425       0.891874     -0.020048      0.000000
   426      -1.781826      0.037571      0.000000
   427       1.093836     -0.064169      0.000000
   428      -0.031741      0.046792      0.000000
   429       0.157981     -0.000213      0.000000
   430      -0.497900      0.000864      0.000000
   431       0.322509     -0.005853      0.000000
   432      -0.151957      0.005569      0.000000
   433       0.078763     -0.007504      0.000000
   434      -0.135511      0.007872      0.000000
   435       0.019209     -0.026692      0.000000
   436       0.009845      0.026236      0.000000
   437       0.056200      0.001535      0.000000
   438      -0.065933     -0.001917      0.000000
   439       0.034725      0.002034      0.000000
   440      -0.024993     -0.001652      0.000000
   441       0.013835      0.000008      0.000000
   442      -0.013856     -0.000008      0.000000
   443       0.003690     -0.000002      0.000000
   444      -0.003655      0.000002      0.000000
   445       0.000000     -0.000000      0.000000
   446      -0.000000      0.000000      0.000000
   447       0.000000     -0.000000      0.000000
   448      -0.000000      0.000000      0.000000
   449       0.000000      0.000000      0.000000
   450      -0.000000     -0.000000      0.000000
   451       0.000000     -0.000000      0.000000
   452      -0.000000      0.000000      0.000000
   453      -0.000000     -0.000000      0.000000
   454      -0.000000      0.000000      0.000000
[...]
   134      -0.000000      0.000000      0.000000
   135       0.000000     -0.000000      0.000000
   136      -0.000000     -0.000000      0.000000
   137       0.000000      0.000000      0.000000
   138      -0.000000     -0.000000      0.000000
   139      -0.000000     -0.000000      0.000000
   140       0.000000      0.000000      0.000000
   141      -0.000000     -0.000000      0.000000
   142       0.000000     -0.000000      0.000000
   143       0.000000      0.000000      0.000000
   144      -0.000000     -0.000000      0.000000
   145      -0.000000      0.000000      0.000000
   146       0.000000     -0.000000      0.000000
   147       0.000000      0.000000      0.000000
   148      -0.000000      0.000000      0.000000
   149       0.000000     -0.000000      0.000000
   150      -0.000000     -0.000000      0.000000
   151       0.000000     -0.000000      0.000000
   152      -0.000000      0.000000      0.000000
   153      -0.000000      0.000000      0.000000
   154       0.000000     -0.000000      0.000000
   155      -0.000000      0.000000      0.000000
   156       0.000000      0.000000      0.000000
   157      -0.000000      0.000000      0.000000
   158       0.000000     -0.000000      0.000000
   159      -0.000000     -0.000000      0.000000
   160       0.000000      0.000000      0.000000
   161       0.000000     -0.000000      0.000000
   162      -0.000000      0.000000      0.000000
   163      -0.000000     -0.000000      0.000000
   164       0.000000     -0.000000      0.000000
   165       0.000000     -0.000000      0.000000
   166      -0.000000      0.000000      0.000000
   167      -0.000000     -0.000000      0.000000
   168       0.000000     -0.000000      0.000000
   169       0.000000      0.000000      0.000000
   170      -0.000000     -0.000000      0.000000
   171      -0.000000     -0.000000      0.000000
   172       0.000000     -0.000000      0.000000
   173       0.000000      0.000000      0.000000
   174      -0.000000      0.000000      0.000000
   175       0.000000     -0.000000      0.000000
   176      -0.000000     -0.000000      0.000000
   177       0.000000      0.000000      0.000000
   178      -0.000000     -0.000000      0.000000
   179       0.000000      0.000000      0.000000
   180      -0.000000      0.000000      0.000000
   181      -0.000000     -0.000000      0.000000
   182       0.000000      0.000000      0.000000
   183       0.000000      0.000000      0.000000
   184      -0.000000     -0.000000      0.000000
   185       0.000000     -0.000000      0.000000
   186      -0.000000      0.000000      0.000000
   187       0.000000     -0.000000      0.000000
   188      -0.000000     -0.000000      0.000000
   189       0.000000      0.000000      0.000000
   190      -0.000000     -0.000000      0.000000
   191      -0.000000      0.000000      0.000000
   192       0.000000     -0.000000      0.000000
   193       0.000000     -0.000000      0.000000
   194      -0.000000      0.000000      0.000000
   195      -0.000000      0.000000      0.000000
   196       0.000000     -0.000000      0.000000
   197      -0.000000     -0.000000      0.000000
   198       0.000000      0.000000      0.000000
   199      -0.000000      0.000000      0.000000
   200       0.000000     -0.000000      0.000000
   201      -0.000000      0.000000      0.000000
   202       0.000000     -0.000000      0.000000
   203      -0.000000     -0.000000      0.000000
   204       0.000000     -0.000000      0.000000
   205      -0.000000      0.000000      0.000000
   206       0.000000     -0.000000      0.000000
   207       0.000000     -0.000000      0.000000
   208      -0.000000      0.000000      0.000000
   209      -0.000000      0.000000      0.000000
   210       0.000000     -0.000000      0.000000
   211       0.000000     -0.000000      0.000000
   212      -0.000000      0.000000      0.000000
   213       0.000000      0.000000      0.000000
   214      -0.000000      0.000000      0.000000
   215       0.000000      0.000000      0.000000
   216      -0.000000      0.000000      0.000000
   217       0.000000     -0.000000      0.000000
   218      -0.000000      0.000000      0.000000
   219       0.000000     -0.000000      0.000000
   220      -0.000000     -0.000000      0.000000
   221      -0.000000      0.000000      0.000000
   222       0.000000     -0.000000      0.000000
   223       0.000000     -0.000000      0.000000
   224      -0.000000     -0.000000      0.000000
   225      -0.000000      0.000000      0.000000
   226       0.000000     -0.000000      0.000000
   227       0.000000      0.000000      0.000000
   228      -0.000000      0.000000      0.000000
   229      -0.000000     -0.000000      0.000000
   230       0.000000     -0.000000      0.000000
   231      -0.000000      0.000000      0.000000
   232       0.000000      0.000000      0.000000
   233      -0.000000     -0.000000      0.000000
   234       0.000000     -0.000000      0.000000
   235       0.000000     -0.000000      0.000000
   236      -0.000000      0.000000      0.000000
   237       0.000000      0.000000      0.000000
   238      -0.000000      0.000000      0.000000
   239      -0.000000      0.000000      0.000000
   240       0.000000     -0.000000      0.000000
   241       0.000000      0.000000      0.000000
   242      -0.000000      0.000000      0.000000
   243      -0.000000      0.000000      0.000000
   244       0.000000      0.000000      0.000000
   245      -0.000000      0.000000      0.000000
   246       0.000000     -0.000000      0.000000
   247      -0.000000     -0.000000      0.000000
   248       0.000000      0.000000      0.000000
   249       0.000000     -0.000000      0.000000
   250      -0.000000      0.000000      0.000000
   251      -0.000000     -0.000000      0.000000
   252       0.000000      0.000000      0.000000
   253      -0.000000      0.000000      0.000000
   254       0.000000      0.000000      0.000000
   255      -0.000000      0.000000      0.000000
   256       0.000000     -0.000000      0.000000
   257       0.000000      0.000000      0.000000
   258      -0.000000      0.000000      0.000000
   259       0.000000     -0.000000      0.000000
   260      -0.000000      0.000000      0.000000
   261      -0.000000      0.000000      0.000000
   262       0.000000      0.000000      0.000000
   263      -0.000000     -0.000000      0.000000
   264       0.000000     -0.000000      0.000000
   265      -0.000000      0.000000      0.000000
   266       0.000000      0.000000      0.000000
   267       0.000000     -0.000000      0.000000
   268      -0.000000     -0.000000      0.000000
   269       0.000000     -0.000000      0.000000
   270      -0.000000      0.000000      0.000000
   271      -0.000000      0.000000      0.000000
   272       0.000000     -0.000000      0.000000
   273      -0.000000      0.000000      0.000000
   274       0.000000     -0.000000      0.000000
   275      -0.000000     -0.000000      0.000000
   276       0.000000      0.000000      0.000000
   277       0.000000      0.000000      0.000000
   278      -0.000000      0.000000      0.000000
   279      -0.000000      0.000000      0.000000
   280       0.000000     -0.000000      0.000000
   281       0.000000      0.000000      0.000000
   282      -0.000000     -0.000000      0.000000
   283       0.000000      0.000000      0.000000
   284      -0.000000     -0.000000      0.000000
   285       0.000000     -0.000000      0.000000
   286      -0.000000      0.000000      0.000000
   287       0.000000     -0.000000      0.000000
   288      -0.000000     -0.000000      0.000000
   289       0.000000     -0.000000      0.000000
   290      -0.000000      0.000000      0.000000
   291       0.000000      0.000000      0.000000
   292      -0.000000     -0.000000      0.000000
   293      -0.000000     -0.000000      0.000000
   294       0.000000      0.000000      0.000000
   295       0.000000     -0.000000      0.000000
   296      -0.000000     -0.000000      0.000000
   297       0.000000     -0.000000      0.000000
   298      -0.000000      0.000000      0.000000
   299       0.000000      0.000000      0.000000
   300      -0.000000     -0.000000      0.000000
   301      -0.000000     -0.000000      0.000000
   302       0.000000      0.000000      0.000000
   303      -0.000000      0.000000      0.000000
   304       0.000000      0.000000      0.000000
   305      -0.000000     -0.000000      0.000000
   306       0.000000     -0.000000      0.000000
   307      -0.000000     -0.000000      0.000000
   308       0.000000     -0.000000      0.000000
   309       0.000000      0.000000      0.000000
   310      -0.000000     -0.000000      0.000000
   311       0.000000     -0.000000      0.000000
   312      -0.000000      0.000000      0.000000
   313       0.000000      0.000000      0.000000
   314      -0.000000     -0.000000      0.000000
   315       0.000000      0.000000      0.000000
   316      -0.000000      0.000000      0.000000
   317       0.000000      0.000000      0.000000
   318      -0.000000      0.000000      0.000000
   319       0.000000     -0.000000      0.000000
   320      -0.000000     -0.000000      0.000000
   321       0.000000     -0.000000      0.000000
   322      -0.000000      0.000000      0.000000
   323       0.000000      0.000000      0.000000
   324      -0.000000     -0.000000      0.000000
   325      -0.000000      0.000000      0.000000
   326       0.000000      0.000000      0.000000
   327      -0.000000      0.000000      0.000000
   328       0.000000     -0.000000      0.000000
   329      -0.000000     -0.000000      0.000000
   330       0.000000      0.000000      0.000000
   331      -0.000000      0.000000      0.000000
   332       0.000000     -0.000000      0.000000
   333      -0.000000     -0.000000      0.000000
   334       0.000000      0.000000      0.000000
   335      -0.000000      0.000000      0.000000
   336       0.000000     -0.000000      0.000000
   337      -0.000000     -0.000000      0.000000
   338       0.000000     -0.000000      0.000000
   339      -0.000000     -0.000000      0.000000
   340       0.000000     -0.000000      0.000000
   341       0.000000      0.000000      0.000000
   342      -0.000000      0.000000      0.000000
   343       0.000000     -0.000000      0.000000
   344      -0.000000     -0.000000      0.000000
   345      -0.000000     -0.000000      0.000000
   346       0.000000      0.000000      0.000000
   347       0.000000      0.000000      0.000000
   348      -0.000000      0.000000      0.000000
   349      -0.000000     -0.000000      0.000000
   350       0.000000     -0.000000      0.000000
   351       0.000000      0.000000      0.000000
   352      -0.000000      0.000000      0.000000
   353      -0.000000      0.000000      0.000000
   354       0.000000     -0.000000      0.000000
   355      -0.000000     -0.000000      0.000000
   356       0.000000      0.000000      0.000000
   357       0.000000      0.000000      0.000000
   358      -0.000000      0.000000      0.000000
   359       0.000000     -0.000000      0.000000
   360      -0.000000     -0.000000      0.000000
   361       0.000000      0.000000      0.000000
   362      -0.000000     -0.000000      0.000000
   363       0.000000      0.000000      0.000000
   364      -0.000000     -0.000000      0.000000
   365       0.000000      0.000000      0.000000
   366      -0.000000     -0.000000      0.000000
   367       0.000000      0.000000      0.000000
   368      -0.000000      0.000000      0.000000
   369       0.000000      0.000000      0.000000
   370      -0.000000     -0.000000      0.000000
   371      -0.000000     -0.000000      0.000000
   372       0.000000      0.000000      0.000000
   373       0.000000     -0.000000      0.000000
   374      -0.000000     -0.000000      0.000000
   375       0.000000      0.000000      0.000000
   376      -0.000000      0.000000      0.000000
   377       0.000000     -0.000000      0.000000
   378      -0.000000      0.000000      0.000000
   379       0.000000      0.000000      0.000000
   380      -0.000000     -0.000000      0.000000
   381      -0.000000      0.000000      0.000000
   382       0.000000     -0.000000      0.000000
   383      -0.000000      0.000000      0.000000
   384       0.000000     -0.000000      0.000000
   385       0.000000     -0.000000      0.000000
   386       0.000000     -0.000000      0.000000
   387       0.000000     -0.000000      0.000000
   388      -0.000000      0.000000      0.000000
   389      -0.000000     -0.000000      0.000000
   390       0.000000     -0.000000      0.000000
   391      -0.000000     -0.000000      0.000000
   392       0.000000     -0.000000      0.000000
   393      -0.000000      0.000000      0.000000
   394       0.000000      0.000000      0.000000
   395       0.000000      0.000000      0.000000
   396      -0.000000     -0.000000      0.000000
   397      -0.000000      0.000000      0.000000
   398       0.000000     -0.000000      0.000000
   399       0.000000     -0.000000      0.000000
   400      -0.000000      0.000000      0.000000
   401      -0.000000      0.000000      0.000000
   402       0.000000     -0.000000      0.000000
   403       0.000000      0.000000      0.000000
   404      -0.000000      0.000000      0.000000
   405      -0.000000     -0.000000      0.000000
   406       0.000000     -0.000000      0.000000
   407       0.000000      0.000000      0.000000
   408      -0.000000      0.000000      0.000000
   409      -0.000000      0.000000      0.000000
   410       0.000000     -0.000000      0.000000
   411       0.000000      0.000000      0.000000
   412      -0.000000     -0.000000      0.000000
   413      -0.000000     -0.000000      0.000000
   414       0.000000     -0.000000      0.000000
   415       0.000000      0.000000      0.000000
   416       0.000000      0.000000      0.000000
   417       0.000000      0.000000      0.000000
   418      -0.000000     -0.000000      0.000000
   419      -0.000000      0.000000      0.000000
   420      -0.000000      0.000000      0.000000
   421      -0.000000     -0.000000      0.000000
   422       0.000000     -0.000000      0.000000
   423      -0.000000     -0.000000      0.000000
   424       0.000000      0.000000      0.000000
   425       0.000000     -0.000000      0.000000
   426      -0.000000      0.000000      0.000000
   427      -0.000000     -0.000000      0.000000
   428       0.000000      0.000000      0.000000
   429      -0.000000     -0.000000      0.000000
   430       0.000000      0.000000      0.000000
   431      -0.000000     -0.000000      0.000000
   432       0.000000      0.000000      0.000000
   433       0.000000      0.000000      0.000000
   434      -0.000000     -0.000000      0.000000
   435      -0.000000     -0.000000      0.000000
   436      -0.000000      0.000000      0.000000
   437      -0.000000      0.000000      0.000000
   438       0.000000      0.000000      0.000000
   439      -0.000000      0.000000      0.000000
   440       0.000000      0.000000      0.000000
   441      -0.000000     -0.000000      0.000000
   442       0.000000     -0.000000      0.000000
   443       0.000000     -0.000000      0.000000
   444      -0.000000      0.000000      0.000000
   445      -0.000000     -0.000000      0.000000
   446       0.000000     -0.000000      0.000000
   447      -0.000000      0.000000      0.000000
   448       0.000000     -0.000000      0.000000
   449       0.000000      0.000000      0.000000
   450      -0.000000     -0.000000      0.000000
   451      -0.000000     -0.000000      0.000000
   452      -0.000000     -0.000000      0.000000
   453      -0.000000     -0.000000      0.000000
   454      -0.000000     -0.000000      0.000000
   455      -0.000000     -0.000000      0.000000
   456       0.000000      0.000000      0.000000


--------------------------------------------------------------------------------
  Phonon properties (per mole of unit cells): Temperature =      0.000 K
--------------------------------------------------------------------------------
  Zero point energy             =       28.642061 eV
--------------------------------------------------------------------------------

  Phonon dispersion curves : 

--------------------------------------------------------------------------------
  Section number =   1
--------------------------------------------------------------------------------
  Frequency (cm-1) Phonon dispersion                                            
--------------------------------------------------------------------------------
  2113.99   |  *  *  *  *  *  *  *  *  *  *  *  *  *  *  *  *  *  *  *  *
  2025.91   |                                                            
  1937.82   |  *  *  *  *  *  *  *  *  *  *  *  *  *  *  *  *  *  *  *  *
  1849.74   |  *  *  *  *  *  *  *  *  *  *  *  *  *  *  *  *  *  *  *  *
  1761.66   |  *  *  *  *  *  *  *  *  *  *  *  *  *  *  *  *  *  *  *  *
  1673.58   |  *  *  *  *  *  *  *  *  *  *  *  *  *  *  *  *  *  *  *  *
  1585.49   |  *  *  *  *  *  *  *  *  *  *  *  *  *  *  *  *  *  *  *  *
  1497.41   |  *  *  *  *  *  *  *  *  *  *  *  *  *  *  *  *  *  *  *  *
  1409.33   |  *  *  *  *  *  *  *  *  *  *  *  *  *  *  *  *  *  *  *  *
  1321.24   |  *  *  *  *  *  *  *  *  *  *  *  *  *  *  *  *  *  *  *  *
  1233.16   |  *  *  *  *  *  *  *  *  *  *  *  *  *  *  *  *  *  *  *  *
  1145.08   |  *  *  *  *  *  *  *  *  *  *  *  *  *  *  *  *  *  *  *  *
  1057.00   |  *  *  *  *  *  *  *  *  *  *  *  *  *  *  *  *  *  *  *  *
   968.91   |  *  *  *  *  *  *  *  *  *  *  *  *  *  *  *  *  *  *  *  *
   880.83   |  *  *  *  *  *  *  *  *  *  *  *  *  *  *  *  *  *  *  *  *
   792.75   |  *  *  *  *  *  *  *  *  *  *  *  *  *  *  *  *  *  *  *  *
   704.66   |  *  *  *  *  *  *  *  *  *  *  *  *  *  *  *  *  *  *  *  *
   616.58   |  *  *  *  *  *  *  *  *  *  *  *  *  *  *  *  *  *  *  *  *
   528.50   |  *  *  *  *  *  *  *  *  *  *  *  *  *  *  *  *  *  *  *  *
   440.41   |  *  *  *  *  *  *  *  *  *  *  *  *  *  *  *  *  *  *  *  *
   352.33   |  *  *  *  *  *  *  *  *  *  *  *  *  *  *  *  *  *  *  *  *
   264.25   |  *  *  *  *  *  *  *  *  *  *  *  *  *  *  *  *  *  *  *  *
   176.17   |  *  *  *  *  *  *  *  *  *  *  *  *  *  *  *  *  *  *  *  *
    88.08   |  *  *  *  *  *  *  *  *  *  *  *  *  *  *  *  *  *  *  *  *
     0.00   |  *  *  *  *  *  *  *  *  *  *  *  *  *  *  *  *  *  *  *  *
--------------------------------------------------------------------------------


  Phonon dispersion written as SLG.disp                                                                                                                

  Time to end of properties =      29.3684 seconds


  Peak dynamic memory used =      16.43 MB 


  Timing analysis for GULP :

--------------------------------------------------------------------------------
  Task / Subroutine                                          Time (Seconds)
--------------------------------------------------------------------------------
  Calculation of Brenner energy and derivatives                   5.1285
  Calculation of phonons                                         25.5458
  Calculation of matrix diagonalisation                          12.8545
  Disk read/write operations to scratch files                     0.0100
--------------------------------------------------------------------------------
  Total CPU time                                                 29.3685
--------------------------------------------------------------------------------


  Job Finished at 18:07.02  1st July       2024                               

